ITEM: TIMESTEP
50000000
ITEM: NUMBER OF ATOMS
2048
ITEM: BOX BOUNDS pp pp pp
0.00000 31.38320
0.00000 29.72743
0.00000 68.58119
ITEM: ATOMS id type x y z fx fy fz
1 1 9.393550 27.420511 63.623549 4.9402090000 0.9634990000 -9.6166200000
2 1 29.164400 7.524361 39.075626 8.5786000000 8.3293500000 -6.5671070000
3 1 1.065426 25.125740 16.450983 6.7565257000 -1.5991800000 -2.0906200000
4 1 30.971797 11.994383 11.934136 -0.0520092000 -0.7273600000 -4.3104600000
5 1 10.658150 27.923995 25.664526 3.6915900000 -0.5689510000 12.8240500000
6 1 20.360424 21.174130 62.568468 6.4199000000 -2.6285000000 0.5492300000
7 1 31.054878 24.625470 32.531671 -10.6706000000 4.4578700000 1.7098400000
8 1 7.739709 8.848025 22.397274 2.0336190000 -0.3565100000 -4.2280500000
9 1 10.619910 24.810725 38.375829 -5.3322510000 -0.6537700000 -14.3237500000
10 1 10.337981 8.938133 51.692832 5.6883690000 0.2108841000 5.7497910000
11 1 16.299134 11.826727 22.078627 -6.7116550000 1.6492800000 -7.9144600000
12 1 24.242771 25.638768 11.201124 2.9799400000 -1.4332160000 -1.5666090000
13 1 5.572118 10.139411 0.724393 -18.0908400000 -0.6557200000 27.6852100000
14 1 12.545956 25.734875 46.909945 -0.6841580000 5.0496730000 -3.6583846000
15 1 14.636219 19.618471 20.653052 4.7355930000 4.3732430000 0.7621940000
16 1 25.527204 12.549330 53.015109 6.4515530000 2.2168400000 -1.2848200000
17 1 10.048724 28.933274 16.902173 7.2262800000 7.6102560000 -4.2355000000
18 1 18.706224 18.375643 53.685691 4.0257500000 -5.1624700000 9.6662800000
19 1 26.124670 5.516738 17.284233 2.9708300000 -1.5665660000 4.0774700000
20 1 17.888940 19.479635 18.584049 -4.3434400000 -3.9135700000 -7.7504100000
21 1 11.593302 6.798329 52.940955 -1.4395400000 -6.0101070000 -2.0770600000
22 1 3.843888 23.165309 47.049974 -5.3328000000 -1.2870670000 4.4717540000
23 1 1.721600 17.892644 59.987171 2.5177150000 -2.7506540000 4.2477710000
24 1 6.834040 28.877788 29.696504 2.7863230000 12.0225800000 3.3663400000
25 1 3.191341 7.189169 42.031179 -0.6369870000 4.2788400000 -1.8799600000
26 1 27.678738 10.180151 13.484838 6.1891600000 -4.4231100000 0.0878940000
27 1 12.198231 7.019790 65.787820 -3.4324100000 -0.1338380000 -2.6342970000
28 1 23.784783 21.669682 26.893272 1.1648570000 0.0234139000 3.6966580000
29 1 8.363121 2.736793 42.811173 -3.0928520000 -9.9529600000 11.6010400000
30 1 23.858674 27.539194 31.130381 5.2310400000 10.4741350000 -0.9410100000
31 1 25.007948 21.139596 15.916004 1.3218940000 -1.3038560000 -3.4962330000
32 1 19.356940 23.058402 64.307696 2.0373200000 9.6138550000 -5.9843800000
33 1 26.969645 11.129770 29.147712 1.4784700000 -3.7762200000 -0.4871430000
34 1 1.784010 5.806551 12.038625 7.7945980000 -1.3099740000 -2.2436200000
35 1 23.030099 25.426503 50.235575 -9.7229566000 13.2173800000 5.3485000000
36 1 20.359129 16.900189 43.697926 -10.0433540000 4.7513610000 0.4284250000
37 1 9.781759 5.137818 1.900559 1.0674480000 -0.1125400000 2.3469950000
38 1 23.231900 2.971425 37.287324 -6.5736100000 1.7425140000 -1.7631400000
39 1 21.036606 22.668985 29.759305 1.9256480000 0.2726810000 -7.0726490000
40 1 28.937374 27.159508 17.933980 4.5576700000 2.3435640000 -0.3039100000
41 1 17.162452 2.967656 51.058356 -9.0287410000 -6.1982000000 0.2627200000
42 1 23.338332 7.577092 26.646521 2.1715890000 17.0801700000 -11.0637200000
43 1 21.082283 29.535777 48.337007 -2.6342300000 0.7088490000 2.9678210000
44 1 2.189304 1.197107 61.265726 4.2499620000 1.8673300000 1.9791900000
45 1 22.943777 1.293847 14.317064 7.7590400000 5.0615000000 6.9237857000
46 1 29.910055 11.037704 39.650359 -3.2834500000 6.3245970000 -6.7286890000
47 1 8.790736 7.637304 29.648441 7.7040100000 -4.4735100000 3.2043170000
48 1 20.399748 13.334219 20.286176 -1.4756800000 -1.8951326000 1.6731900000
49 1 4.539015 19.307785 19.475270 4.4798200000 5.8056620000 -2.5936500000
50 1 13.676224 12.846848 50.738520 -0.8522700000 1.0513000000 -10.1731600000
51 1 26.838591 9.689574 57.214326 -4.7552250000 1.4194600000 -0.2941800000
52 1 17.010160 4.880471 43.991881 8.5874580000 -4.0003320000 -0.1074596000
53 1 11.601683 15.222663 23.198835 0.4407360000 1.4369230000 4.6122190000
54 1 23.936111 22.356524 13.682487 0.4652010000 3.8467900000 -2.4327880000
55 1 20.499397 4.280607 44.903227 3.1162800000 -7.9597500000 0.7003700000
56 1 25.656533 0.113615 57.617770 -1.0686530000 1.4369700000 -0.7956600000
57 1 31.355532 7.777925 37.111751 -0.5473900000 0.9854560000 6.1319060000
58 1 28.484523 26.286019 25.736048 14.7855700000 -6.9634200000 -12.0756990000
59 1 28.606408 13.075108 2.456779 2.5654300000 0.0502600000 -7.0903710000
60 1 28.306902 14.695893 54.679038 -7.1584390000 4.1080700000 -0.3473900000
61 1 1.448488 5.843496 3.523543 -1.5453407000 1.3166400000 8.5176890000
62 1 18.959655 5.905328 66.036724 -4.6782557100 -0.8583300000 15.0103800000
63 1 20.481020 20.100684 26.788641 -10.0945600000 5.3676880000 0.7961920000
64 1 7.761268 12.279595 41.195039 0.2368500000 7.3648560000 7.7618770000
65 1 10.160696 8.971022 6.492367 -2.9658040000 -0.7575400000 4.2583100000
66 1 21.737141 19.225993 58.371299 -2.1662520000 -3.7030900000 3.0982070000
67 1 5.868080 26.800471 46.092392 4.6060490000 0.8099400000 3.3294962000
68 1 13.215955 1.392012 32.927629 -0.7705030000 -1.0066880000 5.2991600000
69 1 25.581986 28.847465 63.611200 -0.6362090000 4.5147900000 6.6071100000
70 1 3.740061 8.867083 21.460122 0.7596400000 2.1949200000 0.0602970000
71 1 4.934228 9.190208 60.590086 -15.7585030000 2.4874760000 5.6928280000
72 1 5.889066 17.994013 38.700308 -4.4568200000 6.7789160000 -5.9880690000
73 1 25.940173 22.733112 18.488446 3.3595820000 -7.2515400000 1.9383020000
74 1 22.213047 20.483497 18.986194 -1.5162220000 -5.0560710000 8.5765600000
75 1 2.338497 19.179604 46.555625 3.5405100000 2.2222640000 23.3376100000
76 1 18.191709 27.430661 36.371682 -6.5179200000 -5.1042910000 5.0654600000
77 1 3.642162 26.184121 65.045779 -4.2184400000 -17.6399500000 -13.1961100000
78 1 19.400348 3.846592 21.371744 -2.0955200000 3.4167930000 1.1869620000
79 1 26.801231 9.715377 32.809583 -12.8095080000 -1.4720510000 -0.4057410000
80 1 16.400826 18.767160 52.308631 -8.2004000000 -2.5985800000 -1.5743350000
81 1 22.485010 22.168652 23.179571 0.3850570000 -3.5409400000 -3.4519960000
82 1 17.435992 19.493866 0.992761 2.7893300000 -1.5020700000 -5.4914750000
83 1 0.476241 9.849497 18.337236 -9.7157400000 -5.2949260000 6.3564260000
84 1 16.054696 4.432160 19.530345 -5.9963200000 1.9129380000 -1.0442050000
85 1 27.106322 22.168400 5.296141 6.5667200000 1.3196400000 -1.2522600000
86 1 22.399549 13.166403 7.934020 2.0446310000 -2.1079110000 -14.4520500000
87 1 11.821907 5.359861 41.089934 0.9831890000 -2.6609140000 -2.2480690000
88 1 23.981186 9.001751 17.502323 -4.8162000000 -4.8903600000 -1.1984890000
89 1 14.386926 13.868469 36.842684 -2.6997610000 2.1260800000 1.5354200000
90 1 19.035504 20.090140 22.135316 -4.2283510000 7.2738900000 -4.4665720000
91 1 27.230381 3.182182 46.462721 7.1425400000 6.3228320000 -5.0452400000
92 1 24.368680 0.330533 29.946903 4.6561070000 -4.6838900000 -4.7598900000
93 1 29.963261 10.265178 56.893287 2.1290648000 8.4076400000 0.2381700000
94 1 21.130243 26.818618 30.175364 10.8861420000 0.0976800000 -1.7299100000
95 1 18.387946 20.239554 36.573249 0.1294380000 -0.6121850000 -6.9174020000
96 1 6.785533 20.210015 42.240169 -1.0447610000 7.4930200000 -7.3046100000
97 1 7.262900 24.429192 29.255653 -6.7552410000 4.6345070000 -9.7054700000
98 1 5.554648 24.969980 60.884605 10.7063600000 0.5027110000 5.6286950000
99 1 31.302497 19.754767 25.382449 -6.0884500000 0.9334900000 5.1705980000
100 1 11.967218 18.071604 7.778742 -6.4644390000 -0.9066400000 -2.4386020000
101 1 14.628879 2.102617 20.346145 -1.1887934000 6.1322300000 7.3211200000
102 1 26.081001 8.046409 19.131794 -2.8233320000 -0.0027130000 7.3651720000
103 1 9.752299 4.749792 54.441072 0.2345760000 6.6928730000 -0.8021480000
104 1 29.106590 20.517075 49.519085 -2.5938500000 -8.3755600000 -1.8405080000
105 1 17.483499 14.872332 46.550991 2.4319730000 -3.9528140000 6.4025000000
106 1 24.846075 19.740614 34.440674 1.4358400000 -7.3363040000 -1.6479640000
107 1 26.954209 20.316907 55.441252 2.1929840000 -2.0450990000 5.7886680000
108 1 26.110518 20.004935 3.809514 -4.8533130000 -2.5451600000 5.7204120000
109 1 1.776433 11.783106 16.978817 1.1531340000 1.6465700000 -6.5802200000
110 1 14.787709 24.104656 15.957286 -6.1971900000 7.0315600000 -6.7450300000
111 1 14.288819 23.303225 64.711981 5.1680700000 7.3189900000 0.2496860000
112 1 26.154194 13.642219 29.949117 -1.8420588000 1.7842500000 1.0513980000
113 1 22.839419 1.659347 34.369892 0.7366360000 -3.7858200000 4.6475870000
114 1 8.079020 25.914705 59.697774 -2.7987700000 -6.3789910000 0.7682830000
115 1 23.815264 28.407498 14.843324 2.1457200000 3.1207400000 1.8996170000
116 1 19.898039 26.652205 46.495336 3.5380910000 -2.9553430000 -8.4747100000
117 1 3.035886 20.941175 65.055192 -8.7548480000 3.2969700000 -4.5964180000
118 1 0.645704 27.202836 39.395374 -3.7904700000 -1.9759990000 4.1808260000
119 1 12.549132 11.648930 57.548290 4.2842300000 -1.0743384000 3.4295300000
120 1 8.897664 7.330855 4.480238 -5.9271400000 -4.0802700000 1.2395900000
121 1 8.773630 5.086002 20.459549 2.0924520000 1.3453000000 -4.9871700000
122 1 26.434368 12.477031 8.216605 3.6198200000 -0.8289610000 -8.5790000000
123 1 4.776079 6.700242 66.825800 8.8929100000 5.0036270000 7.9018500000
124 1 7.888438 0.377016 12.190520 -13.3940400000 -0.3943500000 -2.1223700000
125 1 1.613400 18.216169 7.995488 -4.7933400000 2.6002600000 -8.8810200000
126 1 27.567566 12.218427 50.670944 4.0652300000 -1.0814300000 2.4067600000
127 1 23.142169 3.071279 9.302411 2.6564370000 0.2184890000 0.4867690000
128 1 22.897504 27.506475 60.728520 -0.2395030000 -5.1515100000 7.0457993000
129 1 9.634773 23.531085 29.755099 15.4952100000 -1.6523700000 -9.0122316000
130 1 25.977579 16.258266 59.297349 -0.0644498000 0.0066790000 -6.7961800000
131 1 19.664603 14.179573 25.177292 0.0968700000 -2.8351020000 -0.3010600000
132 1 28.988849 6.759588 9.372136 5.4817200000 -6.1593540000 5.3416500000
133 1 17.437492 7.059605 58.331709 6.9719500000 -3.8771580000 -2.2709900000
134 1 5.966421 26.110012 63.536818 2.0573800000 -3.3192050000 -4.7369057000
135 1 11.487323 12.568909 68.496262 -0.4411670000 1.4432200000 0.2966800000
136 1 12.570034 0.497012 42.524300 2.2831000000 4.6222700000 1.5707800000
137 1 29.456280 14.851200 66.806190 7.1946640000 8.3398840000 -4.2195700000
138 1 31.326152 0.305980 66.321781 3.0276200000 -14.2205700000 6.8048700000
139 1 4.220291 23.477015 44.380270 3.2343800000 6.4255700000 -4.5276200000
140 1 24.826217 1.488157 53.428125 -6.9125400000 -5.1726549000 5.2705000000
141 1 25.593983 9.291499 40.622588 -8.7729800000 5.1560700000 6.7055900000
142 1 1.451119 24.761086 61.024716 -0.1948200000 1.9977600000 -3.7111900000
143 1 22.944085 10.200862 13.192805 3.8724557600 -11.6645700000 1.2510600000
144 1 6.995416 18.857774 54.182499 -1.5482920000 7.2074640000 -1.4737240000
145 1 4.384006 12.335199 58.624284 -5.6245230000 0.5367790000 2.3933900000
146 1 3.381770 25.159292 7.687251 -7.1638600000 8.0013070000 -4.7077600000
147 1 13.789034 27.392973 23.562225 0.4763280000 -0.4087500000 1.2693010000
148 1 25.532979 2.253036 23.333805 -13.2637330000 2.5769260000 -0.7672430000
149 1 16.236526 11.214424 17.671497 2.5714700000 -0.6714480000 5.8577900000
150 1 27.259516 9.865256 26.420152 13.1945400000 13.9477520000 10.6006460000
151 1 26.132650 25.387982 65.260713 0.3136490000 -3.1125500000 6.2163300000
152 1 21.562744 25.044080 16.624446 -4.1554630000 -7.9756230000 -1.6612450000
153 1 15.699656 20.843031 30.824413 -2.6333750000 -5.1810000000 -3.9302800000
154 1 16.141402 12.639319 9.699681 -6.2020633000 -8.4747320000 -0.3848060000
155 1 25.801427 4.786603 0.797782 1.8864210000 -0.0032440000 -2.1522980000
156 1 15.430338 17.349618 14.596941 12.3611000000 4.3445700000 2.7870350000
157 1 5.053835 27.713405 28.157029 4.0174240000 -5.2712570000 -3.7831900000
158 1 5.482030 8.588392 52.485293 -1.3013300000 -2.1225700000 -8.7461300000
159 1 23.108895 24.599419 4.327989 3.0712971000 4.2707400000 -0.6196410000
160 1 30.498571 6.931640 13.111474 -10.5570000000 1.0649800000 -4.7008437000
161 1 14.856970 28.334464 17.156945 -0.9422150000 -0.4576500000 3.2471787000
162 1 2.569671 17.519028 19.068326 -6.8345070000 3.7285200000 0.4285100000
163 1 14.088519 7.091628 9.146031 4.5401890000 -6.2550460000 -3.2220880000
164 1 2.218195 18.866943 55.429060 18.6986850000 1.2610160000 0.3504300000
165 1 11.343995 28.410649 6.809825 -1.0232840000 -0.7647076000 0.4233186000
166 1 15.253833 12.947833 67.318774 -0.2517050000 -11.1642420000 0.9158250000
167 1 15.047173 10.337453 57.395678 -1.2678960000 -2.6326950000 2.0847900000
168 1 14.071482 9.578228 41.613294 -1.5268750000 -13.4406000000 9.9458300000
169 1 23.474679 18.759303 64.155180 -0.7682910000 12.2243260000 -2.3121560000
170 1 2.066389 13.725791 1.397571 -4.2670900000 -9.6739000000 1.8423800000
171 1 14.647388 11.250230 45.115470 9.5777600000 -1.6929900000 4.7152200000
172 1 15.144409 22.788115 54.758342 4.3807900000 -5.6100880000 -0.6555970000
173 1 11.792785 24.965459 20.342921 -3.0590510000 4.6243300000 -0.3218700000
174 1 8.008729 23.764662 7.695816 -0.4625300000 -5.7524800000 -1.3369732000
175 1 30.368199 1.004861 61.511887 -2.4410669000 9.3593950000 3.5095170000
176 1 8.954178 7.929840 32.519415 -1.3126900000 5.5871320000 -6.8461985000
177 1 30.665104 11.640911 48.745250 -11.8315970000 5.6819800000 -7.3666600000
178 1 6.191172 1.469564 27.895024 -6.5683400000 -9.8844800000 6.5104350000
179 1 22.590236 23.952134 1.326021 3.9129170000 5.3513390000 4.8330160000
180 1 17.869912 26.106322 3.875477 0.2672450000 4.3028100000 -3.1421700000
181 1 10.006442 13.268858 39.839840 4.5653700000 -3.9720200000 -5.3755800000
182 1 0.721277 14.153114 56.260463 -9.3779010000 -6.4421750000 -1.2745500000
183 1 16.657585 3.714306 10.604893 2.2162207000 4.4415890000 1.6703600000
184 1 11.979889 13.738490 64.537738 1.3348100000 1.9650500000 -1.0905320000
185 1 19.238767 22.264299 34.562037 -6.8950910000 -4.4410250000 8.1516040000
186 1 30.659500 26.300867 19.949297 2.5705060000 2.0993150000 0.4902790000
187 1 15.514414 12.929246 1.453431 3.5956900000 -1.3396120000 1.1269300000
188 1 21.284377 17.529384 37.626689 -1.4008280000 1.1909300000 6.4224400000
189 1 16.491378 3.713526 56.166484 -8.1157300000 9.4159880000 1.3022200000
190 1 19.939130 13.101163 6.645946 -2.1116140000 0.0353480000 -4.9088900000
191 1 17.677977 21.858042 6.479210 -6.0293000000 -0.1272430000 -3.9413900000
192 1 14.009563 24.920584 35.866925 5.0413700000 5.9492200000 -3.1681120000
193 1 10.134225 25.684993 54.090668 -5.0497164000 2.3536000000 5.4508700000
194 1 25.640091 11.739719 5.443828 0.6573100000 -4.7449600000 9.4840410000
195 1 30.099673 12.751452 26.717879 2.8244120000 -8.6465000000 -1.0443300000
196 1 1.325592 7.614594 1.423496 7.2321480000 8.0977200000 9.2565000000
197 1 16.303899 22.521496 14.233679 10.4754234000 0.3227670000 -2.0319270000
198 1 25.858991 15.244715 36.503912 -5.4321980000 -2.8635990000 3.3396200000
199 1 24.772635 4.336441 49.748000 -3.9038800000 -5.2488150000 3.1081290000
200 1 25.867408 2.404367 37.315082 1.4777150000 -4.3751880000 2.6375160000
201 1 27.348120 13.679855 33.010665 -5.3814050000 2.2548030000 -3.4134250000
202 1 8.907662 4.044688 17.745983 -2.0516200000 4.8817370000 6.1101330000
203 1 10.827890 10.687782 4.230167 2.8887460000 0.2943600000 3.0065110000
204 1 10.621260 19.155363 40.613329 0.2788900000 -2.9259420000 6.2648030000
205 1 1.825000 13.118829 19.413924 6.3458830000 -1.0194960000 4.2966580000
206 1 21.682574 13.058042 45.818448 -1.6523370000 9.2224360000 0.1662000000
207 1 27.605778 10.926294 3.841955 5.6924490000 -4.9647800000 -1.5241630000
208 1 30.004189 20.681223 56.044699 -1.5613300000 -0.9141500000 -5.2685600000
209 1 21.542495 13.873428 39.213685 -0.3544350000 -2.5790340000 0.7724700000
210 1 25.024621 29.402686 6.481070 -0.3344000000 2.9330200000 -17.4349500000
211 1 23.475206 18.581342 39.107416 -7.4583400000 2.3904600000 -5.8050300000
212 1 25.287659 12.198922 63.623314 -2.7716200000 4.7687180000 4.7564600000
213 1 14.357602 15.532699 49.601995 2.5754020000 -5.4370600000 4.5657605000
214 1 29.943929 7.488264 33.194456 -6.0940500000 4.1226746000 2.6149450000
215 1 13.853106 7.210216 46.460010 -7.2398260000 3.1313250000 3.1633030000
216 1 17.124206 27.806290 59.872286 -4.7433430000 -0.2736650000 0.0659905000
217 1 17.216645 27.039635 57.245266 -0.8187806000 0.4748000000 -4.5528130000
218 1 21.025129 9.107862 25.655428 -5.5022300000 -3.3938800000 3.1976000000
219 1 24.920384 6.593923 66.659478 3.7822530000 -1.1213530000 -9.6953100000
220 1 11.479619 26.012302 41.952224 5.3259670000 10.1554580000 -4.6609400000
221 1 13.347454 18.809395 64.307366 -9.0391500000 1.1298510000 -0.3391200000
222 1 10.173502 10.867678 15.403899 -1.9155800000 -9.0220300000 -5.2735200000
223 1 25.849611 21.758346 9.592836 2.5239800000 -2.0467900000 5.1511600000
224 1 15.259646 25.389609 3.000031 1.6962120000 -2.2693630000 -1.0209400000
225 1 19.303765 18.577738 39.494959 0.5445300000 9.8569000000 1.0755150000
226 1 20.052906 27.105220 53.874965 5.3417569000 -12.2131500000 -2.5637200000
227 1 11.353489 25.621841 34.691473 6.7259840000 -3.6466110000 0.2115400000
228 1 5.664677 6.499674 42.712971 -0.7781816000 1.2674990000 3.0092300000
229 1 30.224492 22.440689 46.887299 1.1699930000 -3.4974300000 -1.6689490000
230 1 6.298532 20.637315 10.647290 2.7462580000 1.8426610000 -1.8449900000
231 1 29.648839 13.623303 16.378025 -3.7477100000 4.7089330000 2.4586500000
232 1 31.020907 12.089199 1.444701 0.1153300000 4.0050500000 11.0955830000
233 1 6.531965 6.417347 38.675095 5.7963200000 -3.6933000000 -3.6460240000
234 1 27.450695 16.612035 18.307836 3.2561150000 -8.6936880000 12.9460900000
235 1 13.573848 16.443624 57.942829 -3.9263450000 8.3686140000 11.2033620000
236 1 15.989630 19.646749 28.186963 2.7484950000 0.0994880000 -2.5535360000
237 1 25.447033 19.629161 37.144956 -4.6745420000 4.2295540000 4.6038700000
238 1 5.847544 16.865649 47.839415 -0.7710400000 0.3876200000 6.5712300000
239 1 24.075433 25.374924 59.431113 11.6972700000 1.9940000000 2.3602600000
240 1 8.834004 16.894449 15.760793 1.6893000000 3.2787500000 -1.8730400000
241 1 4.826389 28.479073 57.663222 -1.8312400000 -1.0709200000 9.5053500000
242 1 2.817964 4.532430 7.034890 -5.1312710000 1.9038500000 0.6133308000
243 1 17.487501 0.852047 26.614397 -4.6496700000 6.6721310000 -6.1464420000
244 1 5.808497 2.750449 44.375894 8.3687707000 3.9050000000 -4.2434400000
245 1 6.140745 16.369402 56.538215 -2.4763284000 2.5612400000 -4.9033430000
246 1 24.613638 24.058978 8.915720 -1.6203890000 8.6223990000 -4.1400700000
247 1 19.888532 13.009616 12.097979 -3.6043640000 -4.7700070000 -2.3492980000
248 1 26.519233 16.966001 50.720490 -5.4288820000 1.9246600000 0.7644617000
249 1 10.598261 20.421474 17.211469 3.6483810000 1.9257300000 3.5057500000
250 1 16.290156 15.717960 21.179179 2.1273000000 3.0130650000 -5.0919900000
251 1 0.175569 19.636152 33.745729 -1.8027210000 5.1106900000 -0.8187080000
252 1 28.115985 12.019245 24.848768 0.1427983000 -5.7931080000 -2.1157900000
253 1 5.054042 2.744918 64.796629 -2.6447000000 -21.4931330000 21.0255500000
254 1 5.801770 6.269734 10.633532 -4.8031560000 4.1318640000 -0.1686400000
255 1 29.493662 22.427234 53.974762 0.7345140000 0.2627690000 0.9886775600
256 1 5.316966 0.360353 1.756180 0.4680800000 -0.7389560000 9.3422760000
257 1 19.363306 10.770404 57.398951 5.7185800000 1.8496874000 -4.0568770000
258 1 4.343135 8.768861 9.900753 8.4983300000 -1.8966800000 -9.3529830000
259 1 22.848495 27.387580 39.317901 3.8025530000 -8.7309720000 -1.7795910000
260 1 29.420939 2.835027 16.220036 -3.0967500000 11.8190310000 7.2250960000
261 1 16.432027 2.101496 61.712022 1.2623210000 -0.2826000000 2.9610380000
262 1 24.877559 17.718705 47.099085 -0.5076900000 19.8768700000 -3.2584130000
263 1 15.251445 29.078838 1.606044 -4.1854620000 10.4621980000 2.2387590000
264 1 31.367529 12.720236 53.785048 -5.9928600000 1.9927500000 1.6996650000
265 1 10.091835 13.983336 13.043665 -4.2348900000 -0.2385740000 -2.4969100000
266 1 0.000022 7.693497 53.249507 -7.9413000000 10.2745600000 -0.0125562000
267 1 5.137058 21.836478 20.796427 0.1893500000 -5.2077841000 6.0246070000
268 1 7.352209 16.183921 67.287841 -2.1034520000 2.6336310000 -10.8494750000
269 1 24.869339 26.991832 23.774520 -2.9474430000 -3.9366200000 -3.4279800000
270 1 0.631062 21.724757 57.645558 -7.4688700000 -2.2196300000 4.5826300000
271 1 28.580347 15.541529 45.432462 -8.1463360000 -15.1672600000 0.7719180000
272 1 7.000146 19.386159 17.616218 -1.6242800000 0.0481510000 3.7778540000
273 1 24.667599 29.455580 12.253786 3.5875400000 0.3725735000 1.7592000000
274 1 16.891116 26.977271 29.955124 4.2184900000 5.4302280000 -3.5334100000
275 1 27.611031 3.015799 66.921243 -9.6126090000 -0.9949210000 10.8956230000
276 1 26.004682 3.289594 40.094638 2.9186840000 -2.0750200000 -2.5633950000
277 1 27.028763 8.568027 2.396621 -4.4597200000 -0.2277575000 5.8716870000
278 1 11.416845 27.111700 22.055386 7.8181010000 -0.8259500000 -5.3067700000
279 1 11.663217 6.549330 4.603544 4.7465400000 -0.9186300000 -7.4547300000
280 1 4.729220 16.812578 17.545117 9.9899500000 -5.2633700000 4.2843670000
281 1 16.727735 22.568898 57.111035 2.5310200000 -2.6376170000 -6.5747800000
282 1 19.602836 27.098375 60.514964 4.6417600000 -4.9789100000 1.1074260000
283 1 6.810287 7.899905 14.071744 3.1078940000 1.2775590000 -4.0930740000
284 1 7.599967 3.313738 22.181749 2.0639287000 -1.0153200000 5.7365000000
285 1 24.260504 28.949887 33.737113 -3.1326600000 -0.7383210000 0.9321350000
286 1 22.437969 18.274845 45.695977 4.5345100000 0.8801100000 4.6363510000
287 1 16.025614 14.708429 25.385255 4.4287260000 -1.3087800000 -3.5357300000
288 1 18.913893 2.619024 36.766551 -4.2753240000 4.0572600000 -2.9699060000
289 1 29.666556 26.761292 47.238159 -8.2748800000 -6.7602280000 5.0087500000
290 1 2.756870 1.977691 10.625387 1.6551000000 -0.8602780000 -5.0420100000
291 1 30.707530 26.785175 6.927689 7.4406800000 1.1437900000 -5.2176800000
292 1 30.161718 6.897024 57.882921 4.4039880000 1.1698400000 3.5935000000
293 1 2.283066 0.376488 54.573014 -6.2808747000 -2.2588420000 3.8349000000
294 1 20.452276 21.424517 3.406148 -1.3710500000 3.1566441000 2.4888200000
295 1 21.623681 6.994613 30.339948 5.0516700000 -3.5743700000 -2.5577900000
296 1 15.118850 18.826730 24.299405 -0.2232500000 0.6630730000 -3.9332800000
297 1 31.354907 2.067328 6.609896 9.5167100000 0.0006520000 -2.5932560000
298 1 3.226114 12.334985 22.965390 -1.2147500000 -3.9028700000 -4.1890980000
299 1 15.086361 7.546271 57.059192 -8.7329500000 5.3466450000 11.3357330000
300 1 1.068951 22.155861 26.420066 1.7760410000 -9.1383250000 -1.6165910000
301 1 14.144825 0.124949 62.008865 -1.0783600000 -6.6810900000 2.0931600000
302 1 7.988901 14.151658 5.412958 -4.3966060000 -2.8097800000 -0.7498200000
303 1 0.119018 15.652969 24.634956 -2.5150665000 -2.5686430000 -1.7591220000
304 1 6.819069 24.671825 5.284430 2.0004200000 2.9956300000 -7.8172600000
305 1 18.203146 28.219440 52.290642 -4.0493400000 -5.5712500000 -3.1596900000
306 1 2.259971 20.912155 16.741407 -0.3699100000 3.3195160000 3.5068700000
307 1 20.128418 10.368049 33.103543 2.9235080000 3.7352050000 -1.8281940000
308 1 19.924468 17.699306 8.013566 0.8285000000 -4.5802200000 -2.8547810000
309 1 11.755326 13.333109 52.565609 -2.0039500000 1.8834520000 11.6211200000
310 1 6.018957 6.579081 28.552782 4.8042000000 8.5115410000 -2.5156891000
311 1 30.042516 10.357261 68.233299 -0.8014800000 2.6583500000 -3.1916300000
312 1 12.753189 11.181316 60.406369 -3.0206200000 -0.7150810000 -2.1323930000
313 1 5.638033 10.837326 47.115088 -8.8708200000 5.0636740000 12.1851800000
314 1 27.022128 4.641758 33.259885 -4.8746710000 3.6408200000 -3.3044200000
315 1 26.989066 25.431012 43.313688 -0.4578850000 0.5755500000 -1.3162790000
316 1 13.476805 9.273064 31.646271 -1.9472370000 11.4595200000 -14.7289480000
317 1 9.068794 1.200343 54.756090 11.9836471000 3.0122870000 5.2168300000
318 1 4.946004 5.045637 60.892208 -9.1162020000 -4.6269400000 7.0817380000
319 1 3.753539 2.805493 49.110453 0.9023100000 6.2032600000 2.1512400000
320 1 24.328613 23.935868 54.636311 -3.1209130000 6.5682400000 4.3396210000
321 1 22.748998 19.647693 16.448983 -5.4806300000 6.5633900000 -2.0742280000
322 1 21.825432 1.181936 29.855426 3.0555889900 5.4069000000 8.0867700000
323 1 21.475507 23.417267 14.188288 -3.8177660000 4.0016900000 5.5886300000
324 1 31.259861 23.656393 14.433924 -7.9944400000 10.9015120000 4.3767600000
325 1 12.382758 3.688797 45.853731 -2.8182000000 -0.6774340000 3.1736800000
326 1 31.222843 15.543330 49.333713 6.9505670000 -0.9405130000 -4.7351600000
327 1 24.160869 9.826643 36.129206 6.2146130000 10.1176900000 -9.1120600000
328 1 5.618911 18.207080 31.971971 4.8457600000 0.4693300000 1.4400260000
329 1 7.470444 28.426711 58.397322 -11.8616800000 -1.2138410000 11.1831760000
330 1 28.183241 9.329563 51.130604 -9.3179900000 3.6611500000 2.6849470000
331 1 19.338693 29.695438 4.404175 -2.2305130000 0.8854490000 1.3151420000
332 1 6.096193 13.770076 68.149182 6.1599340000 6.0721500000 10.1185900000
333 1 1.491269 13.786298 36.135919 1.4982400000 6.2504710000 -0.7224800000
334 1 28.786160 15.518542 0.742673 2.6089600000 6.7693400000 5.2546730000
335 1 6.024407 27.679756 0.555824 -1.9635400000 2.7120400000 -10.4428500000
336 1 20.161884 15.144535 57.824397 -2.9174760000 -6.0046200000 6.2605200000
337 1 18.230197 0.369029 48.035006 7.8131390000 1.3396800000 4.8483760000
338 1 16.686791 6.954194 34.126995 9.2129355000 2.7518110000 17.2200510000
339 1 22.139328 2.665567 53.384167 3.1478740000 -2.0858210000 -6.3745327000
340 1 19.388001 25.756710 8.026510 6.5640500000 5.9560800000 -14.6572320000
341 1 5.611505 16.754068 35.447045 12.5541200000 2.5596300000 8.0648500000
342 1 22.782345 1.401322 2.973756 -4.7167100000 7.2076140000 2.5889490000
343 1 11.922509 23.894152 55.122050 -3.7323910000 0.5219500000 2.8515896000
344 1 26.250622 19.658120 29.319090 -3.9785000000 2.2721200000 2.0073100000
345 1 5.821180 1.056430 5.344153 2.8412000000 -0.7875980000 1.2718770000
346 1 26.910555 0.999877 55.207843 -3.3969570000 2.6487620000 2.4763570000
347 1 6.531314 24.444640 66.828719 0.8554500000 5.7127400000 8.3572880000
348 1 29.231124 20.750331 0.970712 -0.2619300000 2.3300200000 3.5322900000
349 1 24.522198 25.961780 0.612895 3.0107390000 -9.8395700000 2.6191100000
350 1 9.096927 16.931539 32.555882 4.1064000000 -1.8254000000 3.5308700000
351 1 5.514127 1.402649 33.427584 1.1819534000 0.4742060000 2.8123400000
352 1 9.016185 13.301582 29.787036 -9.5153400000 12.5546600000 -1.9479980000
353 1 12.052324 10.468447 21.711487 -4.3223110000 3.4761160000 -4.0879300000
354 1 28.749274 7.601138 22.453538 0.1922950000 0.0409440000 5.9503460000
355 1 28.778857 16.335019 34.814294 5.1893379000 2.1597200000 5.1615020000
356 1 10.228645 29.157187 44.878235 0.4605740000 -3.5966500000 3.7809771000
357 1 7.701110 9.485714 64.723484 0.7011470000 -4.5905680000 -6.6412800000
358 1 25.382966 15.216764 53.936371 -0.4850193000 -6.8348190000 -4.3335894000
359 1 13.482110 17.185113 11.948577 -7.0451100000 2.2394800000 -11.7174930000
360 1 4.845019 23.955443 52.808221 3.0170100000 -5.7836650000 4.0736800000
361 1 20.830987 7.071919 60.455545 13.0394420000 -0.3057050000 -5.4298950000
362 1 11.800583 10.751453 53.797621 -0.3126000000 -2.2114600000 -5.0632800000
363 1 11.628595 23.672355 8.669696 4.2875700000 0.0640000000 -4.0724500000
364 1 3.898556 8.442046 56.229879 -2.6750510000 3.8100070000 6.9818300000
365 1 18.770793 13.939549 63.260950 -0.9002560000 3.1155420000 0.4890900000
366 1 13.426725 6.826738 37.407919 -0.9398700000 -0.2009750000 -19.9993000000
367 1 28.352339 22.794908 20.179393 -5.4207260000 3.0361400000 -8.5442900000
368 1 6.953473 10.291075 67.187543 16.5782730000 0.9058980000 -12.3142946900
369 1 8.314132 9.434682 56.892625 -2.3227387000 2.9638820000 0.2200300000
370 1 2.729417 29.512193 43.140126 4.3743900000 8.3865200000 -0.6906260000
371 1 6.234862 9.781065 30.960516 -6.3760000000 4.8123380000 -12.5774100000
372 1 24.918957 15.122108 47.383310 -4.4473300000 -19.6285990000 -3.7107000000
373 1 14.768832 28.694617 30.169057 -2.7178450000 1.3925703000 0.2925980000
374 1 16.185409 11.295737 37.661550 0.2101400000 4.4033220000 2.2377800000
375 1 10.455126 17.367692 28.661144 -0.2166400000 3.2224680000 0.3582600000
376 1 6.629389 25.013746 1.014616 5.9088200000 -1.3099400000 -4.5340820000
377 1 11.583238 9.559785 11.211377 -1.6773100000 2.1993190000 -7.7123000000
378 1 8.350755 11.995705 35.430684 -1.3429900000 -7.1658740000 0.0840900000
379 1 8.377508 21.124592 52.713953 1.7601010000 -6.8807700000 11.3912920000
380 1 30.217971 7.589871 50.304454 7.3343600000 0.8570500000 6.1169000000
381 1 21.541996 2.660351 16.264056 -1.8814000000 0.5642700000 -8.6056800000
382 1 16.610687 15.295045 16.150122 -3.9329690000 0.7582300000 -5.1319500000
383 1 17.110237 18.372974 20.983607 2.6981069000 3.8934300000 3.6562100000
384 1 24.089563 27.193785 65.210297 -4.0938650000 -0.7878190000 3.5156170000
385 1 26.045541 9.564966 66.662571 -5.0913400000 10.2239410000 -8.8340110000
386 1 13.835730 17.400631 31.097846 -5.3829700000 0.8603600000 2.2988800000
387 1 28.290744 16.432344 37.542644 1.1581690000 -2.5894480000 -6.7580000000
388 1 17.241423 18.650493 11.970857 5.3976700000 0.3396620000 13.8069620000
389 1 29.330950 21.244770 3.701120 3.7553530000 -3.2928950000 1.7608110000
390 1 23.152610 8.003384 38.008128 -1.2619560000 -5.4857100000 7.2213410000
391 1 16.361145 18.781161 34.429995 1.0852400000 -2.1077160000 -4.2033200000
392 1 16.712503 25.045641 7.763434 -2.7207500000 -1.5536300000 -1.9525180000
393 1 28.344989 15.517277 60.394613 -6.3952400000 -1.7771620000 1.4370560000
394 1 30.241288 0.666891 19.350534 -2.1794900000 -2.3071490000 -6.2068900000