LAMMPS data file. CGCMM style. atom_style full generated by VMD/TopoTools v1.6 on Thu Mar 24 17:06:05 CDT 2016
 2048 atoms
 0 bonds
 0 angles
 0 dihedrals
 0 impropers
 1 atom types
 0 bond types
 0 angle types
 0 dihedral types
 0 improper types

 0.00000 31.45259 xlo xhi
 0.00000 29.79319 ylo yhi
 0.00000 68.73280 zlo zhi

 Masses

 1 18.01500

 Atoms

1 1 1 0.000000 16.129710 6.923868 28.126960
2 1 1 0.000000 3.393978 2.454881 0.106777
3 1 1 0.000000 29.638154 3.566856 0.334938
4 1 1 0.000000 17.309360 28.548421 19.961434
5 1 1 0.000000 2.330961 6.991456 13.265840
6 1 1 0.000000 7.907827 5.458870 19.240164
7 1 1 0.000000 8.968907 26.722099 29.298663
8 1 1 0.000000 8.231386 16.409801 23.986649
9 1 1 0.000000 9.124711 8.793848 29.622258
10 1 1 0.000000 11.275208 2.457195 0.493414
11 1 1 0.000000 6.023884 3.200494 0.092634
12 1 1 0.000000 29.174080 26.279198 26.464836
13 1 1 0.000000 11.832411 8.541494 14.274862
14 1 1 0.000000 18.181558 9.654210 13.175153
15 1 1 0.000000 23.841187 21.193054 37.667421
16 1 1 0.000000 11.965868 24.988881 30.440218
17 1 1 0.000000 1.380136 5.888644 10.853942
18 1 1 0.000000 0.790420 6.197424 15.432934
19 1 1 0.000000 5.415415 3.349351 13.315562
20 1 1 0.000000 30.159052 2.113585 11.222368
21 1 1 0.000000 2.723128 7.021894 8.841727
22 1 1 0.000000 5.238182 6.208915 8.659934
23 1 1 0.000000 30.221722 6.938118 11.168826
24 1 1 0.000000 1.215148 3.284672 10.988484
25 1 1 0.000000 8.906759 3.455692 10.941217
26 1 1 0.000000 23.747974 24.474081 31.735192
27 1 1 0.000000 2.147182 10.029847 17.517075
28 1 1 0.000000 6.503536 2.327247 10.864108
29 1 1 0.000000 10.150121 6.853954 9.402340
30 1 1 0.000000 12.762337 6.117998 8.904539
31 1 1 0.000000 6.265868 6.818051 11.156547
32 1 1 0.000000 10.440526 2.733258 13.376790
33 1 1 0.000000 1.604288 6.100580 6.580175
34 1 1 0.000000 2.634489 2.101926 8.868646
35 1 1 0.000000 28.925773 3.086386 8.866569
36 1 1 0.000000 30.436140 2.334888 6.641640
37 1 1 0.000000 3.045477 6.884061 4.244611
38 1 1 0.000000 5.579545 6.007568 4.477650
39 1 1 0.000000 30.396825 6.777098 7.258399
40 1 1 0.000000 1.504186 3.487607 6.751250
41 1 1 0.000000 9.285398 6.127942 6.953267
42 1 1 0.000000 10.516002 2.230251 9.056084
43 1 1 0.000000 5.162838 3.500338 8.692575
44 1 1 0.000000 6.992421 2.629484 6.739585
45 1 1 0.000000 10.783427 6.930551 4.550454
46 1 1 0.000000 13.555186 6.246553 4.548140
47 1 1 0.000000 6.845017 7.295888 6.783159
48 1 1 0.000000 9.744262 3.327721 6.584727
49 1 1 0.000000 1.457877 5.687111 2.290629
50 1 1 0.000000 2.907451 2.037223 4.985060
51 1 1 0.000000 29.198312 3.605755 4.595451
52 1 1 0.000000 30.553753 2.427406 2.660537
53 1 1 0.000000 21.323183 4.405760 36.575764
54 1 1 0.000000 5.783216 5.773043 0.115388
55 1 1 0.000000 30.605544 7.172284 2.226102
56 1 1 0.000000 1.938902 2.981015 2.472507
57 1 1 0.000000 9.804832 6.174074 2.120976
58 1 1 0.000000 11.192413 2.274430 4.644262
59 1 1 0.000000 5.501233 3.194062 4.529457
60 1 1 0.000000 7.129058 2.318653 2.383561
61 1 1 0.000000 11.122058 7.349158 68.555585
62 1 1 0.000000 3.633906 28.035077 18.854225
63 1 1 0.000000 7.188362 6.652000 2.354447
64 1 1 0.000000 9.781953 3.378624 2.499745
65 1 1 0.000000 11.043182 18.205122 26.290402
66 1 1 0.000000 3.200799 9.736742 0.393052
67 1 1 0.000000 14.493961 2.542296 15.617396
68 1 1 0.000000 13.515538 7.512206 39.655519
69 1 1 0.000000 5.266142 18.038317 13.477925
70 1 1 0.000000 5.310561 13.852704 13.476492
71 1 1 0.000000 14.131417 5.866955 23.692491
72 1 1 0.000000 13.602862 18.840425 47.451446
73 1 1 0.000000 19.859549 2.520188 37.990640
74 1 1 0.000000 11.328290 10.141332 0.191530
75 1 1 0.000000 6.040135 10.446974 68.730305
76 1 1 0.000000 2.109678 2.501960 17.612271
77 1 1 0.000000 10.281843 14.631572 13.321254
78 1 1 0.000000 12.823038 13.321929 13.225560
79 1 1 0.000000 14.253428 3.796953 18.179556
80 1 1 0.000000 11.370506 20.775988 19.352015
81 1 1 0.000000 1.441364 13.550295 11.342663
82 1 1 0.000000 2.486634 10.045143 13.323264
83 1 1 0.000000 29.097401 9.695932 13.827339
84 1 1 0.000000 30.171947 9.660698 11.300331
85 1 1 0.000000 2.855146 14.700340 9.324432
86 1 1 0.000000 5.355724 13.406670 9.035009
87 1 1 0.000000 30.201666 14.477436 11.250275
88 1 1 0.000000 1.077391 10.747626 11.007329
89 1 1 0.000000 9.002760 13.187699 11.324163
90 1 1 0.000000 8.733537 5.965370 11.613806
91 1 1 0.000000 4.920832 10.987988 13.380826
92 1 1 0.000000 6.287837 9.698637 11.266308
93 1 1 0.000000 10.484757 14.396261 9.302054
94 1 1 0.000000 13.233253 13.240406 9.276418
95 1 1 0.000000 6.597437 14.581321 11.171178
96 1 1 0.000000 8.906490 10.365605 11.366250
97 1 1 0.000000 1.563572 13.606665 6.804158
98 1 1 0.000000 2.454151 9.611512 8.895639
99 1 1 0.000000 28.761397 10.630818 9.416450
100 1 1 0.000000 30.023702 9.542765 7.224257
101 1 1 0.000000 2.869281 14.407487 4.554475
102 1 1 0.000000 5.542236 13.469563 4.382453
103 1 1 0.000000 30.501245 14.534150 7.068179
104 1 1 0.000000 1.118897 10.707310 6.694748
105 1 1 0.000000 9.427780 13.707724 6.769961
106 1 1 0.000000 10.374133 9.511231 9.062626
107 1 1 0.000000 5.078342 10.499141 8.920280
108 1 1 0.000000 6.983092 9.951954 6.822683
109 1 1 0.000000 10.514741 14.678980 4.476630
110 1 1 0.000000 13.080953 13.399026 4.525513
111 1 1 0.000000 6.757295 14.410419 6.743082
112 1 1 0.000000 9.657300 10.759675 6.673859
113 1 1 0.000000 1.515023 13.396152 2.331463
114 1 1 0.000000 3.135937 9.631687 4.505494
115 1 1 0.000000 29.188985 11.010487 4.940795
116 1 1 0.000000 30.552882 9.871039 2.927467
117 1 1 0.000000 16.432959 2.566376 22.763201
118 1 1 0.000000 2.151160 1.061972 48.883072
119 1 1 0.000000 30.530130 14.497461 2.498395
120 1 1 0.000000 1.634090 10.634407 2.526155
121 1 1 0.000000 9.503233 13.575291 2.356740
122 1 1 0.000000 11.050791 9.682571 4.682085
123 1 1 0.000000 5.807656 10.742038 4.450147
124 1 1 0.000000 7.160117 9.551545 2.379330
125 1 1 0.000000 10.987980 14.676613 0.506722
126 1 1 0.000000 18.014215 14.362927 19.427979
127 1 1 0.000000 6.981684 14.679515 2.200243
128 1 1 0.000000 9.669719 10.732259 2.400877
129 1 1 0.000000 25.088839 25.710471 15.744799
130 1 1 0.000000 2.991091 17.084959 68.673398
131 1 1 0.000000 29.285888 18.188582 0.056984
132 1 1 0.000000 18.586672 24.451562 32.633369
133 1 1 0.000000 29.263766 19.920417 18.065104
134 1 1 0.000000 5.253640 20.878482 13.370895
135 1 1 0.000000 22.511678 20.530887 17.143289
136 1 1 0.000000 17.492327 9.936617 47.810187
137 1 1 0.000000 26.230616 29.261753 13.455076
138 1 1 0.000000 11.294511 17.355673 0.464800
139 1 1 0.000000 5.245693 0.472243 19.515854
140 1 1 0.000000 12.014668 3.784533 20.826683
141 1 1 0.000000 10.622145 21.668680 13.066505
142 1 1 0.000000 10.163532 28.584474 30.720305
143 1 1 0.000000 14.825973 24.040496 19.833761
144 1 1 0.000000 10.153156 18.245661 18.462783
145 1 1 0.000000 1.597036 21.071937 11.004401
146 1 1 0.000000 10.086407 13.548735 15.806926
147 1 1 0.000000 0.716519 25.605827 15.977626
148 1 1 0.000000 30.441057 17.367096 11.079394
149 1 1 0.000000 2.965116 21.424455 8.553552
150 1 1 0.000000 5.595202 21.185898 8.706018
151 1 1 0.000000 30.504001 21.997334 11.142600
152 1 1 0.000000 1.564784 18.403946 11.231483
153 1 1 0.000000 9.037169 20.796789 11.017686
154 1 1 0.000000 10.423252 17.393606 13.585279
155 1 1 0.000000 23.146341 15.115316 25.905795
156 1 1 0.000000 6.612865 17.310736 11.266259
157 1 1 0.000000 10.533045 21.979486 8.898384
158 1 1 0.000000 13.380548 21.150778 8.867114
159 1 1 0.000000 6.587388 22.307790 11.198756
160 1 1 0.000000 9.101697 18.173277 11.188390
161 1 1 0.000000 1.570421 20.816785 6.304591
162 1 1 0.000000 2.712419 17.349140 8.776591
163 1 1 0.000000 28.776759 18.319485 8.962833
164 1 1 0.000000 30.084502 17.281486 6.800515
165 1 1 0.000000 3.116528 22.075351 4.252845
166 1 1 0.000000 5.489346 20.901135 4.397552
167 1 1 0.000000 30.578866 21.939921 6.800050
168 1 1 0.000000 1.374702 18.126367 6.575184
169 1 1 0.000000 9.398688 20.998050 6.732089
170 1 1 0.000000 10.625367 17.277350 9.212686
171 1 1 0.000000 5.423508 18.434704 8.948743
172 1 1 0.000000 6.868096 17.140117 6.836502
173 1 1 0.000000 11.005101 21.983145 4.567439
174 1 1 0.000000 13.657743 21.004484 4.750005
175 1 1 0.000000 6.890263 21.909913 6.576857
176 1 1 0.000000 9.474417 18.288115 6.899698
177 1 1 0.000000 1.852638 20.944867 2.178191
178 1 1 0.000000 2.703640 17.199176 4.409261
179 1 1 0.000000 29.168699 18.390469 4.346682
180 1 1 0.000000 30.575571 17.152804 2.257749
181 1 1 0.000000 3.157440 21.902672 0.006664
182 1 1 0.000000 5.781512 20.969296 0.260183
183 1 1 0.000000 30.697737 21.928750 2.201270
184 1 1 0.000000 1.581113 18.212749 1.932535
185 1 1 0.000000 9.651268 21.362858 2.367339
186 1 1 0.000000 10.684758 17.468500 4.701130
187 1 1 0.000000 5.341183 18.087954 4.673159
188 1 1 0.000000 6.874964 17.543752 2.220367
189 1 1 0.000000 11.120331 22.462295 0.147191
190 1 1 0.000000 13.270081 21.048749 0.288640
191 1 1 0.000000 6.795213 22.078116 2.486610
192 1 1 0.000000 9.513041 18.536792 2.137538
193 1 1 0.000000 0.415005 4.913412 40.240508
194 1 1 0.000000 3.099595 24.643745 0.178779
195 1 1 0.000000 29.217634 25.908944 68.587352
196 1 1 0.000000 10.824754 15.188502 34.054629
197 1 1 0.000000 2.670547 29.701254 13.357120
198 1 1 0.000000 5.013597 28.407476 13.519370
199 1 1 0.000000 25.308014 17.314224 30.597726
200 1 1 0.000000 28.837873 6.654590 22.353268
201 1 1 0.000000 30.890879 8.600347 21.556307
202 1 1 0.000000 11.117393 25.188098 0.194777
203 1 1 0.000000 5.701104 25.437868 68.677986
204 1 1 0.000000 11.682721 6.740377 48.565846
205 1 1 0.000000 19.547178 23.299322 24.488837
206 1 1 0.000000 30.441938 14.484818 21.375651
207 1 1 0.000000 27.836310 18.149700 25.508449
208 1 1 0.000000 0.628728 22.760292 30.788769
209 1 1 0.000000 1.661855 28.038815 11.497467
210 1 1 0.000000 2.798913 22.020732 13.152456
211 1 1 0.000000 29.004051 21.884720 16.301559
212 1 1 0.000000 30.078324 25.107482 11.042262
213 1 1 0.000000 2.783753 29.179301 9.170898
214 1 1 0.000000 5.498319 28.280053 8.776142
215 1 1 0.000000 30.696236 29.195975 11.300153
216 1 1 0.000000 1.315957 25.318187 11.088688
217 1 1 0.000000 9.030565 28.665129 11.305783
218 1 1 0.000000 13.829174 9.204894 25.855994
219 1 1 0.000000 6.699224 17.230472 15.657844
220 1 1 0.000000 6.416367 25.161907 11.254535
221 1 1 0.000000 10.688539 29.289733 9.107748
222 1 1 0.000000 13.284543 28.441284 9.239011
223 1 1 0.000000 6.448681 29.195246 11.287109
224 1 1 0.000000 9.207031 25.925799 11.313537
225 1 1 0.000000 1.591335 28.160154 6.835377
226 1 1 0.000000 2.795752 24.307371 8.719431
227 1 1 0.000000 28.744873 25.643662 8.691228
228 1 1 0.000000 29.986681 24.595949 6.602990
229 1 1 0.000000 2.851231 29.163835 4.658810
230 1 1 0.000000 5.420574 28.345523 4.740538
231 1 1 0.000000 30.555564 29.366379 6.488403
232 1 1 0.000000 1.306710 25.330792 6.721369
233 1 1 0.000000 9.520553 28.480797 6.824654
234 1 1 0.000000 10.651052 24.690473 9.107976
235 1 1 0.000000 5.258899 25.532224 8.822776
236 1 1 0.000000 7.070991 24.742892 6.898509
237 1 1 0.000000 10.884944 29.085666 4.507297
238 1 1 0.000000 13.611133 28.485085 4.663436
239 1 1 0.000000 7.016067 29.476147 6.759884
240 1 1 0.000000 9.666661 25.778642 6.701292
241 1 1 0.000000 2.005588 28.513904 2.050063
242 1 1 0.000000 2.968070 24.743517 4.663712
243 1 1 0.000000 29.095746 25.488072 4.172684
244 1 1 0.000000 30.670206 24.733225 2.026131
245 1 1 0.000000 5.228365 4.802348 19.495375
246 1 1 0.000000 6.004817 28.501613 68.538586
247 1 1 0.000000 30.917338 29.476665 2.299508
248 1 1 0.000000 1.612342 25.822898 2.077526
249 1 1 0.000000 9.443688 28.361944 2.138957
250 1 1 0.000000 10.782483 24.644627 4.654315
251 1 1 0.000000 5.550190 25.691918 4.858128
252 1 1 0.000000 6.891979 24.769347 2.562320
253 1 1 0.000000 24.944615 28.170343 26.754577
254 1 1 0.000000 13.882538 28.898719 0.106109
255 1 1 0.000000 6.671611 29.300882 2.547718
256 1 1 0.000000 9.547395 25.553106 2.533923
257 1 1 0.000000 6.762451 28.896848 26.593433
258 1 1 0.000000 19.124691 2.742363 0.012550
259 1 1 0.000000 2.096027 5.728035 44.066402
260 1 1 0.000000 26.126867 12.230561 25.411983
261 1 1 0.000000 20.488140 5.484006 18.470836
262 1 1 0.000000 28.991878 19.423444 38.541124
263 1 1 0.000000 24.761551 15.136344 42.672032
264 1 1 0.000000 16.853583 6.208002 24.056451
265 1 1 0.000000 29.932510 7.442551 14.983055
266 1 1 0.000000 6.043721 18.004438 30.594998
267 1 1 0.000000 24.661287 11.332454 28.471247
268 1 1 0.000000 10.485702 25.287464 19.928490
269 1 1 0.000000 2.560716 17.477548 13.666936
270 1 1 0.000000 28.556797 5.669552 13.300323
271 1 1 0.000000 13.308415 1.828247 25.751554
272 1 1 0.000000 11.549932 24.399436 50.967060
273 1 1 0.000000 17.455448 6.260409 15.487384
274 1 1 0.000000 12.878902 25.754690 36.711914
275 1 1 0.000000 14.429865 6.938763 11.063020
276 1 1 0.000000 14.632463 2.830439 11.340883
277 1 1 0.000000 18.584288 6.848518 8.938295
278 1 1 0.000000 21.230461 5.937813 9.052417
279 1 1 0.000000 14.641671 13.918154 15.055440
280 1 1 0.000000 18.150489 2.177135 13.657416
281 1 1 0.000000 25.140055 6.107873 11.117197
282 1 1 0.000000 24.932158 3.352470 11.172694
283 1 1 0.000000 23.025089 22.630185 29.863993
284 1 1 0.000000 12.754461 28.627824 13.655723
285 1 1 0.000000 26.573908 6.870662 8.984691
286 1 1 0.000000 28.898700 5.752547 9.210504
287 1 1 0.000000 22.480144 7.121560 11.198518
288 1 1 0.000000 25.994469 2.162213 13.799931
289 1 1 0.000000 17.045165 6.252069 6.811987
290 1 1 0.000000 18.845362 2.307287 9.133964
291 1 1 0.000000 13.091953 3.165946 9.011034
292 1 1 0.000000 14.837901 2.233731 6.894844
293 1 1 0.000000 18.545115 7.191286 4.717652
294 1 1 0.000000 21.339147 6.220812 4.832982
295 1 1 0.000000 14.324142 7.244335 6.923114
296 1 1 0.000000 17.439401 3.515423 6.979161
297 1 1 0.000000 25.335807 6.322813 6.564072
298 1 1 0.000000 26.290567 2.253400 9.082194
299 1 1 0.000000 21.426923 3.173993 8.995972
300 1 1 0.000000 22.544081 2.253414 6.760778
301 1 1 0.000000 26.978564 7.467952 4.352887
302 1 1 0.000000 29.596054 6.207012 4.556080
303 1 1 0.000000 22.713774 6.935483 7.030432
304 1 1 0.000000 25.042941 3.335856 6.836356
305 1 1 0.000000 17.752726 6.250499 2.317635
306 1 1 0.000000 18.595605 2.626767 4.637829
307 1 1 0.000000 13.603839 3.518491 4.707740
308 1 1 0.000000 15.170662 2.509803 2.634050
309 1 1 0.000000 19.222439 7.068478 0.202191
310 1 1 0.000000 23.456186 20.894549 32.049580
311 1 1 0.000000 15.019294 6.937978 2.413095
312 1 1 0.000000 17.601862 3.578967 2.265331
313 1 1 0.000000 25.543783 6.107298 2.563138
314 1 1 0.000000 26.699558 2.449107 4.737123
315 1 1 0.000000 21.282082 3.518769 4.616710
316 1 1 0.000000 22.828251 2.616048 2.480113
317 1 1 0.000000 3.160031 1.093154 28.614282
318 1 1 0.000000 4.258895 11.575414 27.394008
319 1 1 0.000000 22.984169 7.146623 2.546328
320 1 1 0.000000 25.505464 3.297166 2.544928
321 1 1 0.000000 2.414458 14.632164 23.268810
322 1 1 0.000000 19.415978 9.804915 0.142860
323 1 1 0.000000 13.775524 11.187998 0.262864
324 1 1 0.000000 17.015413 0.367088 34.675268
325 1 1 0.000000 19.707763 9.371703 23.482449
326 1 1 0.000000 17.993319 28.274671 16.159225
327 1 1 0.000000 14.300992 9.703641 11.297966
328 1 1 0.000000 5.607754 20.581292 41.294494
329 1 1 0.000000 17.943983 6.545091 35.812208
330 1 1 0.000000 13.598147 1.503534 43.320331
331 1 1 0.000000 21.874680 16.018479 28.021719
332 1 1 0.000000 8.112753 11.076615 31.207524
333 1 1 0.000000 25.884003 16.502402 13.258469
334 1 1 0.000000 0.852677 13.631628 28.427574
335 1 1 0.000000 14.816680 12.549814 51.751795
336 1 1 0.000000 30.212746 2.370464 15.618306
337 1 1 0.000000 17.157159 13.550268 10.529496
338 1 1 0.000000 15.046616 10.286046 15.523128
339 1 1 0.000000 1.121867 13.810960 15.418430
340 1 1 0.000000 15.745644 15.777914 20.718228
341 1 1 0.000000 18.428679 14.685671 8.654323
342 1 1 0.000000 21.008408 13.530603 8.701460
343 1 1 0.000000 14.531615 14.612312 11.429055
344 1 1 0.000000 16.818722 10.928797 11.184488
345 1 1 0.000000 25.134082 13.396388 10.872599
346 1 1 0.000000 23.513003 18.058637 17.581987
347 1 1 0.000000 20.786540 10.427022 13.345583
348 1 1 0.000000 22.411158 9.753116 11.103345
349 1 1 0.000000 26.309946 14.516006 8.687536
350 1 1 0.000000 28.933001 13.266777 8.973390
351 1 1 0.000000 22.539685 13.936093 11.069367
352 1 1 0.000000 25.057173 10.537208 11.380813
353 1 1 0.000000 16.995342 13.465869 6.521345
354 1 1 0.000000 18.572305 9.752608 9.069424
355 1 1 0.000000 12.994637 10.475303 9.139505
356 1 1 0.000000 14.613700 9.929872 6.899944
357 1 1 0.000000 18.675444 14.347698 4.409539
358 1 1 0.000000 21.205883 13.210437 4.609181
359 1 1 0.000000 14.344126 14.537101 7.003738
360 1 1 0.000000 17.239209 10.741666 6.796920
361 1 1 0.000000 25.060611 13.660692 6.523447
362 1 1 0.000000 26.332008 9.466695 8.978941
363 1 1 0.000000 21.131411 10.731367 8.938751
364 1 1 0.000000 22.835373 9.825951 7.049202
365 1 1 0.000000 26.897998 14.460151 4.674870
366 1 1 0.000000 29.400796 13.569699 4.704186
367 1 1 0.000000 22.485948 14.517831 6.661066
368 1 1 0.000000 25.396939 10.920385 6.797572
369 1 1 0.000000 17.369013 13.611467 2.154971
370 1 1 0.000000 18.467000 9.988835 4.498279
371 1 1 0.000000 13.604610 10.545435 4.471957
372 1 1 0.000000 15.244694 9.830551 2.216549
373 1 1 0.000000 18.823322 14.812477 0.108791
374 1 1 0.000000 21.655787 10.753184 56.004879
375 1 1 0.000000 14.710062 14.391925 2.422317
376 1 1 0.000000 17.671490 10.934018 1.960751
377 1 1 0.000000 25.552795 13.765647 2.380768
378 1 1 0.000000 26.549448 10.095135 4.571018
379 1 1 0.000000 21.112534 10.594652 4.832939
380 1 1 0.000000 22.875596 10.050518 2.522990
381 1 1 0.000000 26.871965 14.522483 0.041988
382 1 1 0.000000 29.458687 13.577185 0.158046
383 1 1 0.000000 22.661878 14.130079 2.227730
384 1 1 0.000000 25.493686 11.051431 2.261023
385 1 1 0.000000 2.970035 6.508560 21.923163
386 1 1 0.000000 28.650712 2.793838 13.567667
387 1 1 0.000000 13.777668 18.213646 0.472383
388 1 1 0.000000 22.150526 10.634876 33.246258
389 1 1 0.000000 18.670882 21.771984 13.564317
390 1 1 0.000000 19.292413 17.188379 15.937379
391 1 1 0.000000 22.116569 9.785987 19.528922
392 1 1 0.000000 1.778107 3.991718 49.359534
393 1 1 0.000000 24.684076 3.499060 15.830021
394 1 1 0.000000 4.550916 15.917598 22.032187
395 1 1 0.000000 21.493299 18.128263 0.159067
396 1 1 0.000000 17.242344 2.877424 31.308142
397 1 1 0.000000 25.607485 22.080935 13.667915
398 1 1 0.000000 24.913115 21.012572 11.245068
399 1 1 0.000000 26.086637 19.161060 17.138640
400 1 1 0.000000 17.730216 20.775648 26.381948
401 1 1 0.000000 17.268620 21.083567 11.133705
402 1 1 0.000000 19.012023 17.104990 13.248129
403 1 1 0.000000 13.230453 18.048261 13.522463
404 1 1 0.000000 14.552019 17.401828 11.118130
405 1 1 0.000000 18.513197 22.094119 8.856141
406 1 1 0.000000 20.916696 21.034453 8.902565
407 1 1 0.000000 14.678418 22.219579 11.023014
408 1 1 0.000000 17.458086 18.379494 11.456718
409 1 1 0.000000 29.448781 3.594346 18.112383
410 1 1 0.000000 27.318619 17.815642 15.268348
411 1 1 0.000000 21.464715 17.967704 12.798129
412 1 1 0.000000 22.748528 16.793422 10.487359
413 1 1 0.000000 26.577083 22.178125 9.305101
414 1 1 0.000000 28.964820 21.133535 8.929036
415 1 1 0.000000 22.355517 21.897233 11.147438
416 1 1 0.000000 24.941673 18.213418 11.184878
417 1 1 0.000000 17.437541 21.380160 6.419477
418 1 1 0.000000 18.413059 17.468465 9.234023
419 1 1 0.000000 13.272156 18.252782 8.995640
420 1 1 0.000000 14.707664 17.259785 6.928949
421 1 1 0.000000 18.898165 22.086527 4.183262
422 1 1 0.000000 21.372326 20.942639 4.532139
423 1 1 0.000000 14.932886 22.248017 7.010117
424 1 1 0.000000 17.319631 18.364234 6.935506
425 1 1 0.000000 25.139483 20.828239 7.120699
426 1 1 0.000000 26.283346 17.093816 9.193348
427 1 1 0.000000 21.030682 18.173880 8.801867
428 1 1 0.000000 22.541922 17.324436 6.459136
429 1 1 0.000000 26.381270 21.774978 4.941384
430 1 1 0.000000 29.242017 21.278227 4.444820
431 1 1 0.000000 22.610277 22.106183 6.865150
432 1 1 0.000000 25.303804 18.047638 6.610882
433 1 1 0.000000 17.168622 21.189592 2.247463
434 1 1 0.000000 18.554685 17.226125 4.647592
435 1 1 0.000000 13.335449 18.276310 4.948883
436 1 1 0.000000 14.806667 17.197895 2.932316
437 1 1 0.000000 22.679477 11.166294 17.245444
438 1 1 0.000000 21.527028 20.951273 0.342113
439 1 1 0.000000 14.617757 21.988111 2.424907
440 1 1 0.000000 17.354879 18.393122 2.485017
441 1 1 0.000000 25.353777 20.882745 2.600202
442 1 1 0.000000 26.449948 17.306714 4.313168
443 1 1 0.000000 21.205293 18.182407 4.396369
444 1 1 0.000000 22.489835 16.854655 2.353777
445 1 1 0.000000 7.883093 25.297919 19.326727
446 1 1 0.000000 28.596651 28.559421 17.615128
447 1 1 0.000000 22.707160 22.187238 2.402830
448 1 1 0.000000 25.104547 18.143494 2.146845
449 1 1 0.000000 2.029185 13.827682 17.906306
450 1 1 0.000000 18.719082 24.688524 0.022860
451 1 1 0.000000 13.695229 26.178803 0.398421
452 1 1 0.000000 13.980089 4.990993 40.320920
453 1 1 0.000000 25.234668 28.471213 15.935009
454 1 1 0.000000 21.102249 5.877587 13.338262
455 1 1 0.000000 18.197122 29.311387 13.696625
456 1 1 0.000000 25.887298 21.646147 33.300979
457 1 1 0.000000 13.861805 18.701657 40.921081
458 1 1 0.000000 26.704021 24.623393 0.367190
459 1 1 0.000000 18.991020 3.481113 22.591868
460 1 1 0.000000 14.740722 10.751831 30.623081
461 1 1 0.000000 28.839166 28.342790 13.090802
462 1 1 0.000000 28.978770 22.767528 25.157389
463 1 1 0.000000 22.322617 2.054101 11.567966
464 1 1 0.000000 9.889276 4.844180 26.164578
465 1 1 0.000000 16.873167 28.625044 11.429310
466 1 1 0.000000 18.734734 24.554376 13.299556
467 1 1 0.000000 12.852978 26.011987 13.366856
468 1 1 0.000000 14.547792 24.887979 11.440419
469 1 1 0.000000 18.630972 29.399635 9.423475
470 1 1 0.000000 21.249752 28.396042 8.774437
471 1 1 0.000000 14.505593 0.057525 11.464677
472 1 1 0.000000 17.060323 25.889585 11.617700
473 1 1 0.000000 24.918479 28.232333 11.189387
474 1 1 0.000000 28.900591 21.514428 22.762423
475 1 1 0.000000 20.951100 25.769351 13.502242
476 1 1 0.000000 22.095065 24.545135 11.341629
477 1 1 0.000000 26.408334 29.304348 9.147202
478 1 1 0.000000 29.217909 28.491287 8.626072
479 1 1 0.000000 22.374522 29.185193 11.336493
480 1 1 0.000000 24.672746 25.541340 11.318007
481 1 1 0.000000 17.249505 28.519943 7.111015
482 1 1 0.000000 18.566916 24.965925 9.319716
483 1 1 0.000000 13.141250 25.562513 9.133111
484 1 1 0.000000 14.678669 25.173055 6.986339
485 1 1 0.000000 18.843342 29.503931 5.006728
486 1 1 0.000000 21.375600 28.618619 4.337718
487 1 1 0.000000 14.744767 29.298162 6.871398
488 1 1 0.000000 17.394907 25.791548 6.927782
489 1 1 0.000000 25.474185 28.300921 6.636162
490 1 1 0.000000 26.165242 24.893902 9.107461
491 1 1 0.000000 21.207182 25.621679 9.011179
492 1 1 0.000000 22.446451 24.791012 6.757760
493 1 1 0.000000 26.848642 29.370902 4.529698
494 1 1 0.000000 29.513594 28.246196 4.217396
495 1 1 0.000000 22.823595 29.319923 6.638035
496 1 1 0.000000 25.063133 25.642024 6.709030
497 1 1 0.000000 17.775381 28.804763 2.393929
498 1 1 0.000000 18.980811 24.863179 4.845977
499 1 1 0.000000 13.514521 25.687790 4.677300
500 1 1 0.000000 15.059930 24.827974 2.455434
501 1 1 0.000000 19.082473 29.561096 0.059539
502 1 1 0.000000 21.759830 28.385713 0.257808
503 1 1 0.000000 15.054118 29.525487 2.626256
504 1 1 0.000000 17.679931 25.823675 2.398594
505 1 1 0.000000 25.414471 28.686111 2.325968
506 1 1 0.000000 26.482079 24.452627 4.409034
507 1 1 0.000000 21.566781 25.853973 4.513931
508 1 1 0.000000 22.804664 24.848846 2.287317
509 1 1 0.000000 11.571086 26.974337 42.870996
510 1 1 0.000000 10.702418 11.791896 27.326484
511 1 1 0.000000 22.875791 29.700769 2.370356
512 1 1 0.000000 25.348966 25.957577 2.344820
513 1 1 0.000000 22.224923 28.958112 44.280973
514 1 1 0.000000 11.987036 5.784848 18.067475
515 1 1 0.000000 0.343515 17.048249 36.383220
516 1 1 0.000000 27.134052 2.730678 45.986917
517 1 1 0.000000 25.471321 11.455382 17.329039
518 1 1 0.000000 13.260880 27.419323 27.134407
519 1 1 0.000000 24.133698 20.519932 28.544462
520 1 1 0.000000 6.375985 5.271508 35.036703
521 1 1 0.000000 26.972782 22.341333 21.021705
522 1 1 0.000000 7.250117 6.767061 29.200807
523 1 1 0.000000 29.763939 14.750871 28.677595
524 1 1 0.000000 27.036511 5.368043 34.607384
525 1 1 0.000000 7.672306 24.315720 52.912345
526 1 1 0.000000 23.702008 5.197001 44.900241
527 1 1 0.000000 19.268845 16.501543 28.781718
528 1 1 0.000000 17.789393 19.565451 35.886640
529 1 1 0.000000 3.886482 10.783928 30.114362
530 1 1 0.000000 7.116435 22.366317 27.167102
531 1 1 0.000000 16.436476 8.268513 25.714033
532 1 1 0.000000 22.369064 9.239881 24.425411
533 1 1 0.000000 30.146055 24.642411 29.971897
534 1 1 0.000000 26.185057 18.084089 53.106094
535 1 1 0.000000 31.154813 15.149767 18.849825
536 1 1 0.000000 12.576251 1.413297 28.317184
537 1 1 0.000000 11.197207 16.685438 43.298550
538 1 1 0.000000 11.631317 29.487233 44.207210
539 1 1 0.000000 3.835763 2.421508 26.234423
540 1 1 0.000000 19.820353 1.057351 51.624778
541 1 1 0.000000 14.685277 20.805341 23.343680
542 1 1 0.000000 21.933625 22.467556 36.270739
543 1 1 0.000000 13.307578 20.968513 13.309245
544 1 1 0.000000 14.308405 25.262310 51.002912
545 1 1 0.000000 18.601194 21.566492 16.246018
546 1 1 0.000000 7.922706 8.225393 19.934382
547 1 1 0.000000 1.696567 4.742928 31.737060
548 1 1 0.000000 5.563220 0.681298 22.294016
549 1 1 0.000000 27.356922 5.622723 18.469095
550 1 1 0.000000 10.771666 2.291564 46.983775
551 1 1 0.000000 6.642394 14.004993 38.581100
552 1 1 0.000000 5.123965 19.924969 20.874239
553 1 1 0.000000 24.100197 15.149899 45.345834
554 1 1 0.000000 22.565766 24.795123 15.518933
555 1 1 0.000000 19.189685 25.125979 29.814581
556 1 1 0.000000 12.072307 12.552449 52.230820
557 1 1 0.000000 18.861042 24.054677 36.164066
558 1 1 0.000000 9.641792 25.427616 15.593518
559 1 1 0.000000 7.607810 10.330108 47.613697
560 1 1 0.000000 22.951338 14.245805 14.932934
561 1 1 0.000000 23.257841 17.311415 47.488289
562 1 1 0.000000 10.341032 11.557518 20.216577
563 1 1 0.000000 16.952150 28.365663 41.962259
564 1 1 0.000000 12.882892 0.238151 16.108587
565 1 1 0.000000 7.396378 28.650330 19.488455
566 1 1 0.000000 5.930136 27.193301 17.451939
567 1 1 0.000000 15.101267 20.119497 29.098467
568 1 1 0.000000 11.070335 2.407648 55.503966
569 1 1 0.000000 0.612638 19.390337 44.597511
570 1 1 0.000000 2.911181 24.346711 44.737213
571 1 1 0.000000 14.455034 16.902357 15.913702
572 1 1 0.000000 17.678468 19.681162 48.366921
573 1 1 0.000000 3.689086 29.271775 55.259717
574 1 1 0.000000 31.136323 24.888128 57.744259
575 1 1 0.000000 1.276235 20.222147 40.913603
576 1 1 0.000000 4.904010 4.492703 22.208231
577 1 1 0.000000 10.801827 21.282689 42.624108
578 1 1 0.000000 17.367674 0.886911 44.632211
579 1 1 0.000000 7.388664 28.561259 42.534616
580 1 1 0.000000 12.530317 19.289911 43.223131
581 1 1 0.000000 30.216323 21.619107 32.723238
582 1 1 0.000000 3.696988 6.633857 27.756377
583 1 1 0.000000 20.473922 16.672331 50.807099
584 1 1 0.000000 4.146215 3.415432 34.957016
585 1 1 0.000000 23.754036 4.241068 29.687818
586 1 1 0.000000 25.922221 16.450910 33.039949
587 1 1 0.000000 20.909577 3.351234 45.170490
588 1 1 0.000000 0.298158 12.415002 26.032109
589 1 1 0.000000 27.433703 1.305779 49.366886
590 1 1 0.000000 30.501654 29.181509 19.463151
591 1 1 0.000000 15.107727 7.381352 15.897277
592 1 1 0.000000 28.266371 13.135001 20.128886
593 1 1 0.000000 11.216526 20.086934 35.019668
594 1 1 0.000000 18.519861 9.535914 18.100992
595 1 1 0.000000 6.018500 20.403784 51.287448
596 1 1 0.000000 25.350988 12.441725 42.409554
597 1 1 0.000000 9.164205 18.236532 16.009864
598 1 1 0.000000 19.262521 18.887110 19.773257
599 1 1 0.000000 20.620505 26.943428 25.049771
600 1 1 0.000000 14.607096 25.422247 15.550024
601 1 1 0.000000 26.183572 5.426836 48.303883
602 1 1 0.000000 0.437242 16.306308 24.080906
603 1 1 0.000000 28.578540 7.306457 37.708453
604 1 1 0.000000 20.638421 15.923110 24.778344
605 1 1 0.000000 9.904991 28.359999 52.961709
606 1 1 0.000000 1.737730 17.044730 44.467397
607 1 1 0.000000 5.519490 23.801381 43.717825
608 1 1 0.000000 24.419474 11.411371 31.880826
609 1 1 0.000000 1.398769 12.061157 34.983532
610 1 1 0.000000 28.543005 10.477741 31.446948
611 1 1 0.000000 2.814509 16.824071 47.310963
612 1 1 0.000000 26.687304 10.837313 49.134638
613 1 1 0.000000 31.146452 29.285938 48.915733
614 1 1 0.000000 2.565493 21.179788 45.175860
615 1 1 0.000000 15.463299 6.565311 34.433169
616 1 1 0.000000 6.570407 1.804598 26.805034
617 1 1 0.000000 6.145089 10.439697 15.795308
618 1 1 0.000000 28.308278 0.602077 35.684962
619 1 1 0.000000 20.473020 29.132265 32.207701
620 1 1 0.000000 18.784158 12.854906 35.662213
621 1 1 0.000000 18.514797 23.745098 40.943446
622 1 1 0.000000 27.853962 25.430819 24.177921
623 1 1 0.000000 7.422219 9.509135 22.436751
624 1 1 0.000000 8.141336 13.035354 19.935094
625 1 1 0.000000 6.310663 26.584220 46.776944
626 1 1 0.000000 17.654610 17.774872 26.843869
627 1 1 0.000000 23.460848 26.754661 41.154165
628 1 1 0.000000 21.769538 20.767356 34.274460
629 1 1 0.000000 9.575868 12.882328 29.669595
630 1 1 0.000000 1.209356 11.280526 30.055459
631 1 1 0.000000 28.109004 3.251736 29.981608
632 1 1 0.000000 1.298880 6.549603 53.705297
633 1 1 0.000000 3.606956 21.558969 47.542222
634 1 1 0.000000 4.848144 27.756234 31.064247
635 1 1 0.000000 28.220204 10.315707 41.021681
636 1 1 0.000000 14.932742 6.382970 31.775504
637 1 1 0.000000 16.258845 2.325558 25.733375
638 1 1 0.000000 0.738652 10.331289 32.671245
639 1 1 0.000000 8.226068 17.545998 39.962135
640 1 1 0.000000 12.554416 28.112827 46.353134
641 1 1 0.000000 14.474585 4.112303 21.738507
642 1 1 0.000000 9.171962 6.303584 45.224753
643 1 1 0.000000 27.193713 15.427623 16.823613
644 1 1 0.000000 13.371362 11.387638 27.760847
645 1 1 0.000000 27.125003 9.657702 51.576790
646 1 1 0.000000 1.931398 23.087635 22.469185
647 1 1 0.000000 21.397256 13.537228 17.138600