LAMMPS data file. CGCMM style. atom_style full generated by VMD/TopoTools v1.6 on Mon Jul 03 13:59:04 CDT 2017
 6144 atoms
 4096 bonds
 2048 angles
 0 dihedrals
 0 impropers
 2 atom types
 1 bond types
 1 angle types
 0 dihedral types
 0 improper types
 0.000000 31.502001  xlo xhi
 0.000000 29.840000  ylo yhi
 0.000000 68.840800  zlo zhi

 Masses

 1 1.007940 # H
 2 15.999400 # O

Pair Coeffs

    1      0.00000000               0
    2      0.18530000      3.15885958

Bond Coeffs

    1            5530          0.9572 # HW OW

Angle Coeffs

    1            1000          104.52 # HW OW HW

 Atoms

1 1 2 0.000000 3.705670 3.217340 15.679900
2 1 1 0.000000 2.881240 3.691520 15.571700
3 1 1 0.000000 4.150850 3.670200 16.396100
4 2 2 0.000000 5.433350 0.013955 0.222885
5 2 1 0.000000 5.143210 0.128033 -0.682100
6 2 1 0.000000 6.379690 0.154090 0.190990
7 3 2 0.000000 0.103773 0.860935 0.122719
8 3 1 0.000000 -0.006100 1.810860 0.080324
9 3 1 0.000000 0.587289 0.639532 -0.673200
10 4 2 0.000000 1.613550 0.251674 15.995300
11 4 1 0.000000 1.132500 0.562535 15.228400
12 4 1 0.000000 2.528010 0.231762 15.713200
13 5 2 0.000000 5.231110 4.858570 13.834700
14 5 1 0.000000 5.324370 5.780340 14.075200
15 5 1 0.000000 4.716230 4.476030 14.545200
16 6 2 0.000000 7.905710 3.569860 13.867700
17 6 1 0.000000 7.064840 4.007790 13.999600
18 6 1 0.000000 8.495050 3.987860 14.495600
19 7 2 0.000000 1.206060 4.714850 15.451800
20 7 1 0.000000 1.288270 5.668110 15.479600
21 7 1 0.000000 0.622750 4.502920 16.180500
22 8 2 0.000000 4.321750 0.625700 15.928500
23 8 1 0.000000 4.113080 1.559880 15.927800
24 8 1 0.000000 4.410380 0.398928 15.002800
25 9 2 0.000000 11.887900 3.155050 16.093600
26 9 1 0.000000 11.064800 3.642840 16.123000
27 9 1 0.000000 12.413400 3.528130 16.801300
28 10 2 0.000000 13.409300 29.534300 0.284825
29 10 1 0.000000 12.957700 29.929434 -0.460900
30 10 1 0.000000 14.330300 29.760700 0.155052
31 11 2 0.000000 8.183330 0.675817 0.464040
32 11 1 0.000000 7.884520 1.582180 0.390246
33 11 1 0.000000 8.488370 0.451361 -0.415100
34 12 2 0.000000 8.921140 29.440500 16.151000
35 12 1 0.000000 8.443570 29.845386 15.426900
36 12 1 0.000000 9.793620 29.832300 16.111800
37 13 2 0.000000 13.417100 4.399160 14.031400
38 13 1 0.000000 13.210700 5.322100 14.179100
39 13 1 0.000000 13.016000 3.942260 14.770700
40 14 2 0.000000 16.020500 3.924500 13.609100
41 14 1 0.000000 15.089800 4.145830 13.639800
42 14 1 0.000000 16.401500 4.385350 14.356500
43 15 2 0.000000 9.560680 4.557920 16.485900
44 15 1 0.000000 9.639050 5.507420 16.578200
45 15 1 0.000000 8.964150 4.296990 17.187500
46 16 2 0.000000 11.507500 0.439475 16.442300
47 16 1 0.000000 11.386400 1.385710 16.363600
48 16 1 0.000000 12.044400 0.202499 15.686200
49 17 2 0.000000 4.247450 3.616470 11.388800
50 17 1 0.000000 3.448920 4.050480 11.088500
51 17 1 0.000000 4.520580 4.120280 12.155500
52 18 2 0.000000 5.259620 29.545500 13.463600
53 18 1 0.000000 4.843280 29.875178 12.667200
54 18 1 0.000000 6.049610 30.077441 13.559300
55 19 2 0.000000 0.267522 1.199510 13.624000
56 19 1 0.000000 0.224345 2.152270 13.542600
57 19 1 0.000000 0.524661 0.895732 12.753400
58 20 2 0.000000 1.358530 0.152828 11.366100
59 20 1 0.000000 0.997767 0.398464 10.514200
60 20 1 0.000000 2.298960 0.310665 11.283000
61 21 2 0.000000 5.756820 4.398370 9.141900
62 21 1 0.000000 5.646130 5.347870 9.191030
63 21 1 0.000000 5.443890 4.076210 9.987190
64 22 2 0.000000 8.440310 3.435410 8.743530
65 22 1 0.000000 7.607660 3.877490 8.909310
66 22 1 0.000000 8.949480 3.575420 9.541890
67 23 2 0.000000 1.717950 4.787020 10.967400
68 23 1 0.000000 1.628390 5.735060 11.064400
69 23 1 0.000000 1.060670 4.421970 11.559800
70 24 2 0.000000 3.821830 0.949871 11.429700
71 24 1 0.000000 3.967130 1.892100 11.515300
72 24 1 0.000000 4.237630 0.717358 10.599500
73 25 2 0.000000 11.942200 3.530990 11.723100
74 25 1 0.000000 11.101300 3.986440 11.681400
75 25 1 0.000000 12.382500 3.909190 12.484200
76 26 2 0.000000 12.904900 29.763700 14.053100
77 26 1 0.000000 12.524900 30.006500 13.208700
78 26 1 0.000000 13.737700 30.234416 14.085700
79 27 2 0.000000 7.761060 0.698693 13.915100
80 27 1 0.000000 7.650910 1.620670 13.682600
81 27 1 0.000000 8.174040 0.305068 13.146500
82 28 2 0.000000 8.992560 0.035587 11.616300
83 28 1 0.000000 8.776900 0.240431 10.706500
84 28 1 0.000000 9.921570 0.251535 11.697200
85 29 2 0.000000 12.859500 4.556910 9.250800
86 29 1 0.000000 12.839100 5.481490 9.497710
87 29 1 0.000000 12.618700 4.089510 10.050700
88 30 2 0.000000 15.406300 3.625860 9.031400
89 30 1 0.000000 14.591900 4.120490 8.939850
90 30 1 0.000000 15.858400 4.041690 9.765490
91 31 2 0.000000 9.084430 4.394180 11.441900
92 31 1 0.000000 9.197300 5.337030 11.562400
93 31 1 0.000000 8.761020 4.081250 12.286700
94 32 2 0.000000 11.893200 0.819762 11.749000
95 32 1 0.000000 11.783500 1.756960 11.909700
96 32 1 0.000000 12.274100 0.769639 10.872200
97 33 2 0.000000 4.165590 3.519780 6.924070
98 33 1 0.000000 3.292050 3.911070 6.916890
99 33 1 0.000000 4.631200 3.984920 7.619110
100 34 2 0.000000 5.696540 0.029472 9.178950
101 34 1 0.000000 5.343840 0.358738 8.352260
102 34 1 0.000000 6.581770 0.390928 9.223110
103 35 2 0.000000 0.030612 1.096130 8.951760
104 35 1 0.000000 0.150188 2.045820 8.946930
105 35 1 0.000000 0.303928 0.815395 8.078420
106 36 2 0.000000 1.469930 29.765300 6.775740
107 36 1 0.000000 1.244810 30.188166 5.947050
108 36 1 0.000000 2.360290 30.062725 6.962850
109 37 2 0.000000 5.330420 4.864330 4.376060
110 37 1 0.000000 5.331430 5.819640 4.436200
111 37 1 0.000000 4.963950 4.571730 5.210520
112 38 2 0.000000 7.965660 3.590020 4.275330
113 38 1 0.000000 7.168430 4.110920 4.371870
114 38 1 0.000000 8.457110 3.751950 5.080620
115 39 2 0.000000 1.740560 4.653080 6.562800
116 39 1 0.000000 1.616050 5.601650 6.593430
117 39 1 0.000000 1.128750 4.309570 7.213900
118 40 2 0.000000 4.282320 0.737451 6.844680
119 40 1 0.000000 4.373850 1.688390 6.904360
120 40 1 0.000000 4.688060 0.509325 6.008280
121 41 2 0.000000 12.007000 3.486950 6.851490
122 41 1 0.000000 11.098700 3.730030 6.672170
123 41 1 0.000000 12.196500 3.878920 7.703940
124 42 2 0.000000 13.197100 0.251111 9.288200
125 42 1 0.000000 12.883300 0.594553 8.451620
126 42 1 0.000000 14.136800 0.433310 9.285180
127 43 2 0.000000 8.305290 0.848834 8.817040
128 43 1 0.000000 8.381970 1.800050 8.742530
129 43 1 0.000000 8.539580 0.520459 7.948990
130 44 2 0.000000 9.465670 29.638800 6.613790
131 44 1 0.000000 9.125370 29.928536 5.767350
132 44 1 0.000000 10.383300 29.911224 6.609540
133 45 2 0.000000 13.388800 4.684030 4.816970
134 45 1 0.000000 13.248500 5.608110 5.023450
135 45 1 0.000000 13.052300 4.213920 5.579860
136 46 2 0.000000 15.733900 3.839210 4.417480
137 46 1 0.000000 14.809500 4.080610 4.475610
138 46 1 0.000000 16.121000 4.175110 5.225940
139 47 2 0.000000 9.471750 4.413970 6.469040
140 47 1 0.000000 9.394790 5.363500 6.562290
141 47 1 0.000000 9.110240 4.062820 7.282810
142 48 2 0.000000 12.021800 0.733633 6.739900
143 48 1 0.000000 11.902600 1.679920 6.658770
144 48 1 0.000000 12.493600 0.482209 5.945900
145 49 2 0.000000 4.246340 3.971520 1.990460
146 49 1 0.000000 3.353500 4.202180 1.733810
147 49 1 0.000000 4.311120 4.244630 2.905580
148 50 2 0.000000 5.442910 29.733500 4.350980
149 50 1 0.000000 4.992620 30.145265 3.613490
150 50 1 0.000000 6.363240 29.967863 4.231420
151 51 2 0.000000 0.051390 0.886292 4.422950
152 51 1 0.000000 -0.018200 1.837160 4.337870
153 51 1 0.000000 0.565738 0.614324 3.662880
154 52 2 0.000000 1.469240 0.005447 2.249000
155 52 1 0.000000 1.035430 0.205376 1.419500
156 52 1 0.000000 2.338010 0.398691 2.166370
157 53 2 0.000000 5.306820 4.875330 17.732100
158 53 1 0.000000 5.400470 5.822100 17.837400
159 53 1 0.000000 5.047130 4.562040 18.598530
160 54 2 0.000000 7.680570 3.479930 0.019438
161 54 1 0.000000 6.865950 3.979340 -0.037200
162 54 1 0.000000 8.124240 3.831290 0.791407
163 55 2 0.000000 1.562380 4.857240 1.928360
164 55 1 0.000000 1.454160 5.806210 1.991460
165 55 1 0.000000 1.079660 4.510240 2.678570
166 56 2 0.000000 4.160040 1.281170 2.474780
167 56 1 0.000000 4.216620 2.235310 2.423190
168 56 1 0.000000 4.696970 0.969188 1.746350
169 57 2 0.000000 12.018000 3.854760 2.615340
170 57 1 0.000000 11.154100 4.252040 2.505440
171 57 1 0.000000 12.407200 4.326470 3.351730
172 58 2 0.000000 13.440300 29.646100 4.640080
173 58 1 0.000000 12.946100 30.055118 3.929610
174 58 1 0.000000 14.269400 30.124035 4.661840
175 59 2 0.000000 8.038580 0.800419 4.339900
176 59 1 0.000000 8.055070 1.736460 4.140420
177 59 1 0.000000 8.587000 0.401400 3.664440
178 60 2 0.000000 9.684970 29.769600 2.476540
179 60 1 0.000000 9.184770 30.051116 1.710510
180 60 1 0.000000 10.513100 30.245178 2.410430
181 61 2 0.000000 13.180300 4.499060 0.144237
182 61 1 0.000000 13.342000 5.440260 0.209399
183 61 1 0.000000 12.885900 4.245020 1.018880
184 62 2 0.000000 15.858900 3.640710 18.074900
185 62 1 0.000000 14.913000 3.648270 18.221912
186 62 1 0.000000 16.227700 4.035340 18.865139
187 63 2 0.000000 9.209070 4.718580 2.199960
188 63 1 0.000000 9.143090 5.672690 2.160720
189 63 1 0.000000 8.684870 4.472910 2.962260
190 64 2 0.000000 12.136700 1.084750 2.616140
191 64 1 0.000000 12.089200 2.025760 2.447370
192 64 1 0.000000 12.456700 0.709633 1.795690
193 65 2 0.000000 3.398370 11.119300 16.234100
194 65 1 0.000000 2.599890 11.616900 16.058100
195 65 1 0.000000 3.793800 11.558400 16.987100
196 66 2 0.000000 5.569110 7.670830 0.386343
197 66 1 0.000000 5.323610 7.914770 -0.506100
198 66 1 0.000000 6.459480 8.006410 0.490544
199 67 2 0.000000 30.962100 8.372690 18.017200
200 67 1 0.000000 31.033900 9.327100 18.003200
201 67 1 0.000000 31.451100 8.083950 17.246600
202 68 2 0.000000 0.952109 7.384130 16.030900
203 68 1 0.000000 0.606156 7.769440 15.225900
204 68 1 0.000000 1.777180 7.845170 16.182400
205 69 2 0.000000 5.170600 12.268100 13.950700
206 69 1 0.000000 5.013350 13.212200 13.967400
207 69 1 0.000000 4.570740 11.913300 14.606900
208 70 2 0.000000 7.809360 11.089900 13.984000
209 70 1 0.000000 6.974600 11.552100 14.060000
210 70 1 0.000000 8.322000 11.395600 14.732300
211 71 2 0.000000 0.921787 12.386800 15.879600
212 71 1 0.000000 0.850489 13.327400 16.042200
213 71 1 0.000000 0.476925 11.980300 16.623300
214 72 2 0.000000 3.558940 8.381530 16.398900
215 72 1 0.000000 3.470970 9.331740 16.473700
216 72 1 0.000000 3.977040 8.245370 15.548700
217 73 2 0.000000 12.073300 11.151900 16.046100
218 73 1 0.000000 11.141800 11.371300 16.065800
219 73 1 0.000000 12.413300 11.473500 16.881100
220 74 2 0.000000 13.350400 7.218150 0.293522
221 74 1 0.000000 12.905600 7.668950 -0.424200
222 74 1 0.000000 14.133500 7.743390 0.458101
223 75 2 0.000000 8.111500 8.680230 0.412000
224 75 1 0.000000 8.101780 9.630590 0.298236
225 75 1 0.000000 8.565550 8.350340 -0.363400
226 76 2 0.000000 9.527090 7.450220 16.376800
227 76 1 0.000000 9.114080 7.688670 15.546900
228 76 1 0.000000 10.420400 7.786610 16.305700
229 77 2 0.000000 13.368300 11.940200 13.586100
230 77 1 0.000000 13.106200 12.858400 13.652300
231 77 1 0.000000 12.886400 11.501900 14.287500
232 78 2 0.000000 16.032600 11.089600 13.702300
233 78 1 0.000000 15.148200 11.447200 13.622900
234 78 1 0.000000 16.413700 11.555000 14.446900
235 79 2 0.000000 9.397040 12.092500 15.890400
236 79 1 0.000000 9.357570 13.043800 15.791500
237 79 1 0.000000 8.834730 11.905900 16.642200
238 80 2 0.000000 12.124100 8.389890 16.276800
239 80 1 0.000000 12.244500 9.307360 16.031900
240 80 1 0.000000 12.425400 7.896340 15.514000
241 81 2 0.000000 4.303910 11.553000 11.513000
242 81 1 0.000000 3.366390 11.730300 11.436400
243 81 1 0.000000 4.513540 11.759200 12.423900
244 82 2 0.000000 5.109610 7.645550 14.155500
245 82 1 0.000000 4.833040 7.884680 13.270800
246 82 1 0.000000 6.044690 7.848950 14.177800
247 83 2 0.000000 31.343500 8.497370 13.555400
248 83 1 0.000000 31.386000 9.441470 13.403400
249 83 1 0.000000 31.848368 8.115690 12.837300
250 84 2 0.000000 1.360450 7.623780 11.542500
251 84 1 0.000000 0.915241 7.907070 10.743900
252 84 1 0.000000 2.266970 7.908020 11.425600
253 85 2 0.000000 5.329380 12.184400 8.790410
254 85 1 0.000000 5.277450 13.140200 8.791990
255 85 1 0.000000 4.956870 11.922400 9.632330
256 86 2 0.000000 7.820960 11.082300 9.085820
257 86 1 0.000000 6.899670 11.341800 9.076200
258 86 1 0.000000 8.106640 11.244500 9.984870
259 87 2 0.000000 1.583490 12.002800 11.173400
260 87 1 0.000000 1.363110 12.929800 11.081600
261 87 1 0.000000 1.154650 11.733500 11.985700
262 88 2 0.000000 4.239830 8.596540 11.432800
263 88 1 0.000000 4.382750 9.542150 11.473200
264 88 1 0.000000 4.767120 8.305700 10.688800
265 89 2 0.000000 11.745900 11.069900 11.348900
266 89 1 0.000000 10.819800 11.210100 11.546400
267 89 1 0.000000 12.195500 11.233700 12.177900
268 90 2 0.000000 13.074500 7.296520 13.902300
269 90 1 0.000000 12.527400 7.535300 13.154000
270 90 1 0.000000 13.915600 7.719350 13.729300
271 91 2 0.000000 8.131660 8.115180 14.183800
272 91 1 0.000000 8.191830 9.046970 13.973200
273 91 1 0.000000 8.454970 7.670600 13.400200
274 92 2 0.000000 9.192140 7.188110 11.771700
275 92 1 0.000000 8.869500 7.383470 10.891900
276 92 1 0.000000 10.104800 7.476470 11.762100
277 93 2 0.000000 13.295100 11.896100 9.281070
278 93 1 0.000000 13.273700 12.850300 9.208460
279 93 1 0.000000 12.759900 11.701900 10.050500
280 94 2 0.000000 15.872100 10.916700 9.379420
281 94 1 0.000000 14.980300 11.264300 9.381450
282 94 1 0.000000 16.341000 11.455100 10.017000
283 95 2 0.000000 9.009120 11.550100 11.491900
284 95 1 0.000000 9.002120 12.438100 11.134600
285 95 1 0.000000 8.489370 11.609900 12.293400
286 96 2 0.000000 11.748800 8.409450 11.721300
287 96 1 0.000000 11.822600 9.325200 11.452700
288 96 1 0.000000 12.109900 7.913870 10.986300
289 97 2 0.000000 4.132740 11.099400 6.706450
290 97 1 0.000000 3.243820 11.454200 6.693340
291 97 1 0.000000 4.517300 11.445200 7.511920
292 98 2 0.000000 5.412640 7.376500 9.299240
293 98 1 0.000000 4.895980 7.798600 8.612860
294 98 1 0.000000 6.236710 7.863280 9.312960
295 99 2 0.000000 0.077336 8.390260 9.039330
296 99 1 0.000000 0.243324 9.313300 8.847820
297 99 1 0.000000 0.470970 7.918340 8.305450
298 100 2 0.000000 1.694880 7.437680 6.632380
299 100 1 0.000000 1.356260 7.965920 5.909520
300 100 1 0.000000 2.569480 7.789740 6.797750
301 101 2 0.000000 5.690840 12.259600 4.419220
302 101 1 0.000000 5.473940 13.183900 4.297000
303 101 1 0.000000 5.182240 11.993000 5.185030
304 102 2 0.000000 8.230490 11.265200 4.519940
305 102 1 0.000000 7.324220 11.538300 4.662470
306 102 1 0.000000 8.743690 11.820900 5.106470
307 103 2 0.000000 1.603070 12.159600 6.778690
308 103 1 0.000000 1.590800 13.091500 6.996900
309 103 1 0.000000 1.075620 11.746100 7.462110
310 104 2 0.000000 4.069480 8.419520 7.101730
311 104 1 0.000000 3.967190 9.370170 7.146670
312 104 1 0.000000 4.464460 8.260910 6.244370
313 105 2 0.000000 11.731800 11.006700 7.180670
314 105 1 0.000000 10.935700 11.532500 7.103690
315 105 1 0.000000 12.173200 11.351700 7.956800
316 106 2 0.000000 13.013100 7.267300 9.301130
317 106 1 0.000000 12.536100 7.571450 8.529010
318 106 1 0.000000 13.886900 7.647000 9.208380
319 107 2 0.000000 8.274560 8.141190 9.304260
320 107 1 0.000000 8.238790 9.072560 9.086290
321 107 1 0.000000 8.587670 7.719310 8.504130
322 108 2 0.000000 9.041450 7.160210 6.875220
323 108 1 0.000000 8.571600 7.526060 6.125800
324 108 1 0.000000 9.902720 7.576810 6.845140
325 109 2 0.000000 13.075200 11.584300 4.924300
326 109 1 0.000000 13.137500 12.537800 4.981270
327 109 1 0.000000 12.740300 11.314200 5.779350
328 110 2 0.000000 15.859700 11.116000 4.648320
329 110 1 0.000000 14.976600 11.433900 4.836170
330 110 1 0.000000 16.331800 11.216600 5.474900
331 111 2 0.000000 9.308080 12.517900 6.892800
332 111 1 0.000000 9.286560 13.433600 7.170780
333 111 1 0.000000 8.817410 12.050300 7.568700
334 112 2 0.000000 11.567100 8.335120 7.251290
335 112 1 0.000000 11.555300 9.291570 7.215310
336 112 1 0.000000 12.206600 8.077820 6.587200
337 113 2 0.000000 4.054240 11.460200 2.431500
338 113 1 0.000000 3.248580 11.774000 2.842240
339 113 1 0.000000 4.730800 11.597200 3.094620
340 114 2 0.000000 5.292100 7.727930 4.371730
341 114 1 0.000000 4.714370 7.851880 3.618670
342 114 1 0.000000 6.104390 8.170980 4.126530
343 115 2 0.000000 0.486524 8.703250 4.561340
344 115 1 0.000000 0.460243 9.649760 4.421170
345 115 1 0.000000 0.767860 8.343770 3.720000
346 116 2 0.000000 1.221520 7.537690 2.059420
347 116 1 0.000000 0.606342 8.030400 1.516250
348 116 1 0.000000 2.055680 7.994780 1.952210
349 117 2 0.000000 4.945820 12.377300 18.116100
350 117 1 0.000000 5.095090 13.313700 17.985000
351 117 1 0.000000 4.757050 12.292900 19.050690
352 118 2 0.000000 7.565050 11.223400 17.777300
353 118 1 0.000000 6.622690 11.378800 17.840800
354 118 1 0.000000 7.941110 11.732000 18.495664
355 119 2 0.000000 1.096110 12.415900 2.179240
356 119 1 0.000000 1.264280 13.351800 2.288560
357 119 1 0.000000 0.716374 12.141200 3.013860
358 120 2 0.000000 3.739630 8.435540 2.237540
359 120 1 0.000000 3.787990 9.390640 2.196600
360 120 1 0.000000 4.341620 8.135350 1.556560
361 121 2 0.000000 11.718100 11.032900 2.478000
362 121 1 0.000000 10.841600 11.416600 2.504740
363 121 1 0.000000 12.092000 11.228500 3.337170
364 122 2 0.000000 13.079000 7.430150 5.217000
365 122 1 0.000000 12.714700 7.669670 4.364870
366 122 1 0.000000 14.018000 7.594970 5.131410
367 123 2 0.000000 8.273740 8.487430 4.577990
368 123 1 0.000000 8.395940 9.435990 4.617300
369 123 1 0.000000 8.822980 8.204810 3.846760
370 124 2 0.000000 9.597620 7.352040 2.550580
371 124 1 0.000000 9.263080 7.769130 1.756620
372 124 1 0.000000 10.547200 7.336260 2.431490
373 125 2 0.000000 13.063000 12.059400 0.270064
374 125 1 0.000000 12.736000 12.949800 0.141239
375 125 1 0.000000 12.645900 11.765400 1.079860
376 126 2 0.000000 15.726600 11.372800 18.106300
377 126 1 0.000000 14.793000 11.568600 18.185504
378 126 1 0.000000 16.124400 11.785900 18.872647
379 127 2 0.000000 9.240720 12.204200 2.143080
380 127 1 0.000000 9.231870 13.158500 2.217570
381 127 1 0.000000 8.773340 11.898400 2.920450
382 128 2 0.000000 12.304400 8.291410 2.533100
383 128 1 0.000000 12.198700 9.220240 2.327370
384 128 1 0.000000 12.713700 7.917780 1.752620
385 129 2 0.000000 3.914280 18.966800 15.538500
386 129 1 0.000000 3.025870 19.322100 15.512000
387 129 1 0.000000 4.177360 19.046400 16.455400
388 130 2 0.000000 4.840110 15.364900 0.050186
389 130 1 0.000000 4.416510 15.488300 -0.799300
390 130 1 0.000000 5.776010 15.443100 -0.134700
391 131 2 0.000000 31.239300 15.946100 0.444516
392 131 1 0.000000 31.203900 16.899300 0.524218
393 131 1 0.000000 31.620332 15.791500 -0.419800
394 132 2 0.000000 0.813912 15.237000 15.997500
395 132 1 0.000000 0.406040 15.485300 15.168000
396 132 1 0.000000 1.744850 15.420700 15.871700
397 133 2 0.000000 5.188840 19.549700 13.362300
398 133 1 0.000000 5.054830 20.492500 13.459100
399 133 1 0.000000 4.818270 19.171500 14.159700
400 134 2 0.000000 7.864240 18.535900 13.359300
401 134 1 0.000000 6.962190 18.855100 13.333800
402 134 1 0.000000 8.204490 18.844700 14.199000
403 135 2 0.000000 1.359140 19.566900 15.333700
404 135 1 0.000000 1.277020 20.518900 15.390500
405 135 1 0.000000 1.001010 19.245300 16.161100
406 136 2 0.000000 3.445180 15.959600 15.807200
407 136 1 0.000000 3.455030 16.916400 15.779300
408 136 1 0.000000 3.992380 15.692400 15.068700
409 137 2 0.000000 11.790200 18.799100 15.806300
410 137 1 0.000000 10.864700 19.032200 15.879000
411 137 1 0.000000 12.176400 19.089200 16.632700
412 138 2 0.000000 12.606300 14.953900 0.047478
413 138 1 0.000000 12.376800 15.389300 -0.773500
414 138 1 0.000000 13.527900 15.172700 0.185614
415 139 2 0.000000 7.611630 15.747600 17.882000
416 139 1 0.000000 7.849370 16.673300 17.934800
417 139 1 0.000000 8.160730 15.398400 17.180000
418 140 2 0.000000 9.201770 14.860500 15.665800
419 140 1 0.000000 8.596560 15.169000 14.991400
420 140 1 0.000000 10.006200 15.355600 15.510900
421 141 2 0.000000 13.112800 19.434400 13.312300
422 141 1 0.000000 12.942100 20.361100 13.480600
423 141 1 0.000000 12.554500 18.970400 13.936200
424 142 2 0.000000 15.619500 18.557800 13.551300
425 142 1 0.000000 14.741300 18.925600 13.452400
426 142 1 0.000000 16.045600 19.123800 14.195000
427 143 2 0.000000 9.021320 19.281200 15.807600
428 143 1 0.000000 8.832720 20.217600 15.870200
429 143 1 0.000000 8.714060 18.918400 16.638300
430 144 2 0.000000 11.730400 16.047800 15.645600
431 144 1 0.000000 12.088000 16.932700 15.573500
432 144 1 0.000000 12.168200 15.554700 14.951800
433 145 2 0.000000 3.738780 18.548100 11.169000
434 145 1 0.000000 2.810510 18.781100 11.153000
435 145 1 0.000000 4.043000 18.833600 12.030500
436 146 2 0.000000 4.795680 15.262900 13.598800
437 146 1 0.000000 4.476160 15.281800 12.696700
438 146 1 0.000000 5.747990 15.214700 13.515100
439 147 2 0.000000 31.318800 15.848400 13.503100
440 147 1 0.000000 31.185300 16.795300 13.460400
441 147 1 0.000000 31.812159 15.639600 12.709800
442 148 2 0.000000 0.953051 14.679600 11.175600
443 148 1 0.000000 0.481459 15.176500 10.507000
444 148 1 0.000000 1.851910 15.005100 11.127000
445 149 2 0.000000 5.246780 19.266500 9.014790
446 149 1 0.000000 5.456080 20.200400 9.029240
447 149 1 0.000000 4.641870 19.144800 9.746560
448 150 2 0.000000 7.942950 18.507700 9.083950
449 150 1 0.000000 7.031090 18.797700 9.109210
450 150 1 0.000000 8.312510 18.805200 9.915310
451 151 2 0.000000 0.811471 19.497100 11.160000
452 151 1 0.000000 0.732795 20.450800 11.182700
453 151 1 0.000000 0.389698 19.202100 11.967000
454 152 2 0.000000 3.539970 15.630500 11.117300
455 152 1 0.000000 3.405160 16.571900 11.009300
456 152 1 0.000000 4.026890 15.366600 10.336600
457 153 2 0.000000 11.908000 18.440100 11.015400
458 153 1 0.000000 11.030700 18.755800 11.231900
459 153 1 0.000000 12.412700 18.563400 11.819300
460 154 2 0.000000 12.697800 14.523100 13.468500
461 154 1 0.000000 12.328200 14.866500 12.655000
462 154 1 0.000000 13.507100 15.019000 13.592500
463 155 2 0.000000 7.678970 15.557800 13.364200
464 155 1 0.000000 7.868770 16.495100 13.321400
465 155 1 0.000000 7.953380 15.218200 12.512400
466 156 2 0.000000 9.054830 14.498800 10.661900
467 156 1 0.000000 8.607620 15.103500 10.069800
468 156 1 0.000000 9.944830 14.844400 10.730500
469 157 2 0.000000 13.278700 19.726700 9.196660
470 157 1 0.000000 13.338400 20.663500 9.384000
471 157 1 0.000000 12.841100 19.356100 9.963120
472 158 2 0.000000 15.911800 18.648900 9.027120
473 158 1 0.000000 15.081600 19.125200 9.015720
474 158 1 0.000000 16.315700 18.890400 9.860640
475 159 2 0.000000 9.312460 19.541200 11.277000
476 159 1 0.000000 9.141440 20.481700 11.227100
477 159 1 0.000000 8.977800 19.281700 12.135400
478 160 2 0.000000 11.501300 15.680800 10.948800
479 160 1 0.000000 11.662200 16.623200 10.995000
480 160 1 0.000000 12.048800 15.379100 10.224000
481 161 2 0.000000 4.138620 18.855900 6.667570
482 161 1 0.000000 3.210080 19.045600 6.801960
483 161 1 0.000000 4.522260 18.902300 7.543290
484 162 2 0.000000 4.892850 14.922800 8.882500
485 162 1 0.000000 4.569910 15.238100 8.038390
486 162 1 0.000000 5.787720 15.258100 8.937520
487 163 2 0.000000 31.381100 16.154400 9.223400
488 163 1 0.000000 31.282300 17.099100 9.104560
489 163 1 0.000000 31.796915 15.853100 8.415610
490 164 2 0.000000 1.124940 14.867800 7.053880
491 164 1 0.000000 0.678604 15.401200 6.396210
492 164 1 0.000000 2.027530 15.186500 7.049040
493 165 2 0.000000 5.191500 20.149900 4.418050
494 165 1 0.000000 5.176990 21.087900 4.608170
495 165 1 0.000000 4.918790 19.734900 5.236380
496 166 2 0.000000 7.872880 19.089900 4.265660
497 166 1 0.000000 6.982850 19.441300 4.290040
498 166 1 0.000000 8.289960 19.437900 5.053810
499 167 2 0.000000 1.460810 19.732800 6.612450
500 167 1 0.000000 1.476790 20.684500 6.713710
501 167 1 0.000000 0.880417 19.427000 7.309490
502 168 2 0.000000 3.702720 15.847500 6.657220
503 168 1 0.000000 3.623040 16.754600 6.362200
504 168 1 0.000000 4.161570 15.402700 5.944530
505 169 2 0.000000 12.185900 18.690600 6.959110
506 169 1 0.000000 11.334800 19.117200 7.058600
507 169 1 0.000000 12.727000 19.070400 7.651320
508 170 2 0.000000 13.129200 14.741500 8.894980
509 170 1 0.000000 12.639800 15.091100 8.150410
510 170 1 0.000000 13.977400 15.183200 8.853350
511 171 2 0.000000 7.589400 15.929100 8.861380
512 171 1 0.000000 7.785250 16.860800 8.960640
513 171 1 0.000000 7.872350 15.717900 7.971700
514 172 2 0.000000 8.893260 15.490200 6.343420
515 172 1 0.000000 8.426830 15.794800 5.565020
516 172 1 0.000000 9.764740 15.878900 6.268450
517 173 2 0.000000 13.496800 19.733100 4.820800
518 173 1 0.000000 13.255500 20.658700 4.857070
519 173 1 0.000000 13.032100 19.334900 5.556790
520 174 2 0.000000 15.892200 18.568800 4.886620
521 174 1 0.000000 15.000100 18.901800 4.788740
522 174 1 0.000000 16.309000 19.175500 5.498550
523 175 2 0.000000 9.297850 19.544200 6.651710
524 175 1 0.000000 9.458200 20.469200 6.838250
525 175 1 0.000000 9.025160 19.173800 7.491180
526 176 2 0.000000 11.661500 15.801500 6.861050
527 176 1 0.000000 12.007700 16.693000 6.819790
528 176 1 0.000000 12.039900 15.361700 6.099720
529 177 2 0.000000 3.897350 19.121200 2.291550
530 177 1 0.000000 2.971990 19.363700 2.324960
531 177 1 0.000000 4.303580 19.627000 2.995370
532 178 2 0.000000 5.022520 14.913000 4.413230
533 178 1 0.000000 4.485930 15.167700 3.662610
534 178 1 0.000000 5.811390 15.449800 4.337480
535 179 2 0.000000 31.362100 15.899300 4.968620
536 179 1 0.000000 31.394500 16.855100 5.010490
537 179 1 0.000000 31.863705 15.676300 4.184510
538 180 2 0.000000 1.179010 15.085500 2.571180
539 180 1 0.000000 0.589524 15.492800 1.936460
540 180 1 0.000000 1.995200 15.579300 2.491890
541 181 2 0.000000 5.491450 19.521800 0.029335
542 181 1 0.000000 5.354770 20.468200 -0.014000
543 181 1 0.000000 5.034030 19.249500 0.824835
544 182 2 0.000000 7.763750 18.380900 0.145755
545 182 1 0.000000 6.918220 18.806700 0.004275
546 182 1 0.000000 8.068790 18.726000 0.984870
547 183 2 0.000000 1.188350 19.411900 2.102190
548 183 1 0.000000 1.037590 20.353400 2.017900
549 183 1 0.000000 0.850529 19.191500 2.970260
550 184 2 0.000000 3.577510 16.232300 2.285960
551 184 1 0.000000 3.702120 17.181300 2.295030
552 184 1 0.000000 3.851120 15.962700 1.409220
553 185 2 0.000000 12.009500 18.577300 2.451980
554 185 1 0.000000 11.176400 19.044400 2.515920
555 185 1 0.000000 12.584700 19.026700 3.071190
556 186 2 0.000000 12.943200 14.709800 4.695380
557 186 1 0.000000 12.566400 15.059600 3.888000
558 186 1 0.000000 13.788200 15.152100 4.777050
559 187 2 0.000000 7.400290 16.224400 4.218690
560 187 1 0.000000 7.321490 17.177300 4.174400
561 187 1 0.000000 7.980230 15.997500 3.491760
562 188 2 0.000000 8.914040 15.106200 2.131270
563 188 1 0.000000 8.536890 15.345500 1.284660
564 188 1 0.000000 9.812290 15.435000 2.095370
565 189 2 0.000000 12.899600 19.605000 0.180883
566 189 1 0.000000 13.019700 20.530200 0.395129
567 189 1 0.000000 12.508000 19.225400 0.967465
568 190 2 0.000000 15.630400 18.478600 0.027186
569 190 1 0.000000 14.786700 18.897700 -0.142600
570 190 1 0.000000 15.932300 18.870300 0.846721
571 191 2 0.000000 9.589710 19.899400 2.241770
572 191 1 0.000000 9.404040 20.808700 2.007250
573 191 1 0.000000 8.921780 19.677800 2.890590
574 192 2 0.000000 11.640400 15.678700 2.481760
575 192 1 0.000000 11.719600 16.625700 2.596020
576 192 1 0.000000 11.994400 15.511900 1.608180
577 193 2 0.000000 3.811760 26.051900 15.651000
578 193 1 0.000000 2.943290 26.402500 15.453400
579 193 1 0.000000 4.055890 26.467600 16.478000
580 194 2 0.000000 4.797360 22.309900 0.204770
581 194 1 0.000000 4.370650 22.882500 -0.432600
582 194 1 0.000000 5.717240 22.573900 0.186548
583 195 2 0.000000 0.296074 23.492000 0.021647
584 195 1 0.000000 0.423829 24.431200 -0.111800
585 195 1 0.000000 0.596458 23.090700 -0.793800
586 196 2 0.000000 1.133170 22.312700 15.778400
587 196 1 0.000000 0.797536 22.515500 14.905200
588 196 1 0.000000 1.997260 22.723600 15.804800
589 197 2 0.000000 5.572100 26.705400 13.471300
590 197 1 0.000000 5.404590 27.624300 13.261800
591 197 1 0.000000 5.030150 26.532100 14.241000
592 198 2 0.000000 8.140970 25.944800 13.645600
593 198 1 0.000000 7.218930 26.189100 13.565600
594 198 1 0.000000 8.364870 26.147000 14.554000
595 199 2 0.000000 1.238350 27.269000 15.546500
596 199 1 0.000000 1.503980 28.182800 15.650100
597 199 1 0.000000 0.995031 26.988400 16.428700
598 200 2 0.000000 3.713040 23.270200 15.682000
599 200 1 0.000000 3.785420 24.222000 15.610000
600 200 1 0.000000 4.264670 22.933500 14.975900
601 201 2 0.000000 11.826500 25.772700 16.088800
602 201 1 0.000000 10.987700 26.147800 16.356900
603 201 1 0.000000 12.457200 26.119800 16.719700
604 202 2 0.000000 12.912900 22.438400 0.219480
605 202 1 0.000000 12.369700 22.695600 -0.525500
606 202 1 0.000000 13.799000 22.704300 -0.026400
607 203 2 0.000000 7.586300 23.012900 0.117870
608 203 1 0.000000 7.719320 23.957600 0.039812
609 203 1 0.000000 7.796730 22.668400 -0.750000
610 204 2 0.000000 8.610890 22.261800 15.864600
611 204 1 0.000000 8.285280 22.551400 15.012300
612 204 1 0.000000 9.484240 22.647800 15.931600
613 205 2 0.000000 13.047800 26.937800 14.026000
614 205 1 0.000000 12.908300 27.871000 14.187100
615 205 1 0.000000 12.486000 26.497600 14.663800
616 206 2 0.000000 15.606800 25.863800 13.490400
617 206 1 0.000000 14.750100 26.290800 13.487900
618 206 1 0.000000 16.058600 26.237000 14.247200
619 207 2 0.000000 9.238230 26.686500 16.144500
620 207 1 0.000000 9.104840 27.625500 16.015800
621 207 1 0.000000 8.613500 26.446900 16.829000
622 208 2 0.000000 11.340400 23.052000 16.120500
623 208 1 0.000000 11.514400 23.991900 16.069000
624 208 1 0.000000 11.943600 22.661300 15.488300
625 209 2 0.000000 4.123080 26.039800 11.032400
626 209 1 0.000000 3.271010 26.411700 11.260200
627 209 1 0.000000 4.534280 25.847900 11.875200
628 210 2 0.000000 5.056240 22.384500 13.457400
629 210 1 0.000000 4.630650 22.620200 12.633100