ITEM: TIMESTEP
1100000
ITEM: NUMBER OF ATOMS
2048
ITEM: BOX BOUNDS pp pp pp
0.00000 31.45259
0.00000 29.79319
0.00000 68.73280
ITEM: ATOMS id type x y z fx fy fz 
1 1 16.129710 6.923868 28.126960 -2.6896570000 0.8018280000 -6.0407700000 
2 1 3.393978 2.454881 0.106777 -4.0555050000 -2.0079600000 1.7150280000 
3 1 29.638154 3.566856 0.334938 -6.1574140000 -0.5106370000 -3.7378000000 
4 1 17.309360 28.548421 19.961434 -3.9252900000 2.7645440000 -4.2890320000 
5 1 2.330961 6.991456 13.265840 1.7656160000 2.1134180000 0.7334600000 
6 1 7.907827 5.458870 19.240164 -6.0281330000 0.3200940000 6.7485700000 
7 1 8.968907 26.722099 29.298663 -4.5702100000 -6.4296080000 -5.5105020000 
8 1 8.231386 16.409801 23.986649 2.6380480000 -3.4422650000 -0.4742800000 
9 1 9.124711 8.793848 29.622258 -5.9519900000 1.1662900000 -3.4575100000 
10 1 11.275208 2.457195 0.493414 6.4820340000 3.9705400000 -7.9981900000 
11 1 6.023884 3.200494 0.092634 1.2897500000 -7.8892600000 -2.9257000000 
12 1 29.174080 26.279198 26.464836 2.8819100000 2.7724330000 -0.1122012000 
13 1 11.832411 8.541494 14.274862 -8.3624570000 8.2620800000 7.0116670000 
14 1 18.181558 9.654210 13.175153 3.7118450000 -0.3786800000 2.9095270000 
15 1 23.841187 21.193054 37.667421 -0.9638500000 1.5630420000 10.1371400000 
16 1 11.965868 24.988881 30.440218 3.9663870000 7.6629900000 11.1395470000 
17 1 1.380136 5.888644 10.853942 -5.2141490000 12.4482500000 6.6106130000 
18 1 0.790420 6.197424 15.432934 7.1181700000 -5.4618598900 -2.8746440000 
19 1 5.415415 3.349351 13.315562 -3.6140537000 0.4188800000 -4.5071070000 
20 1 30.159052 2.113585 11.222368 3.1702320000 3.9073000000 2.8465780000 
21 1 2.723128 7.021894 8.841727 -0.7293600000 -11.3900330000 -1.9625900000 
22 1 5.238182 6.208915 8.659934 3.6471990000 0.5669876000 6.8541260000 
23 1 30.221722 6.938118 11.168826 3.2054500000 -3.4605270000 10.5017000000 
24 1 1.215148 3.284672 10.988484 1.3995900000 -7.5641390000 2.3766800000 
25 1 8.906759 3.455692 10.941217 14.6664600000 -13.1682500000 4.5074400000 
26 1 23.747974 24.474081 31.735192 14.7097300000 4.7667040000 -13.3472700000 
27 1 2.147182 10.029847 17.517075 0.8715900000 0.4544286000 11.6252900000 
28 1 6.503536 2.327247 10.864108 -7.1789554000 -2.6211600000 0.5358900000 
29 1 10.150121 6.853954 9.402340 0.2172200000 -2.1632170000 1.0394230000 
30 1 12.762337 6.117998 8.904539 2.6319370000 -5.5628590000 5.3128500000 
31 1 6.265868 6.818051 11.156547 -4.6020920000 7.1177840000 -3.1288190000 
32 1 10.440526 2.733258 13.376790 -5.5385500000 6.8239090000 1.3392600000 
33 1 1.604288 6.100580 6.580175 1.7396700000 8.0357800000 -3.4525770000 
34 1 2.634489 2.101926 8.868646 0.1184840000 6.8987300000 0.9476200000 
35 1 28.925773 3.086386 8.866569 0.1655470000 -11.2594880000 0.3791960000 
36 1 30.436140 2.334888 6.641640 2.1072763000 1.6774842000 2.7355610000 
37 1 3.045477 6.884061 4.244611 -7.8316630000 2.0617100000 7.0543300000 
38 1 5.579545 6.007568 4.477650 6.1979000000 -0.3635640000 2.7041400000 
39 1 30.396825 6.777098 7.258399 4.6199728000 4.1745690000 -9.8962000000 
40 1 1.504186 3.487607 6.751250 -5.5284000000 -11.0188300000 3.9671500000 
41 1 9.285398 6.127942 6.953267 2.6419560000 -2.3589340000 -7.4500540000 
42 1 10.516002 2.230251 9.056084 -0.0327500000 3.2615662100 0.0913380000 
43 1 5.162838 3.500338 8.692575 4.0163400000 -9.5853400000 -1.7334330000 
44 1 6.992421 2.629484 6.739585 0.5360672500 -4.1002890000 3.1028260000 
45 1 10.783427 6.930551 4.550454 5.2777500000 -0.8808000000 5.2904960000 
46 1 13.555186 6.246553 4.548140 -10.4603500000 -1.4784700000 4.1688000000 
47 1 6.845017 7.295888 6.783159 -1.1772100000 -9.7049540000 -8.5902960000 
48 1 9.744262 3.327721 6.584727 -9.2989100000 -0.2377216000 7.3740500000 
49 1 1.457877 5.687111 2.290629 6.2298110000 3.0111120000 2.3506030000 
50 1 2.907451 2.037223 4.985060 5.3326130000 4.9685061000 -12.4272100000 
51 1 29.198312 3.605755 4.595451 -5.2592100000 -7.0123860000 4.0493700000 
52 1 30.553753 2.427406 2.660537 9.0055500000 -4.6051100000 -8.4159300000 
53 1 21.323183 4.405760 36.575764 4.9701700000 4.5288770000 7.9255440000 
54 1 5.783216 5.773043 0.115388 -3.9717101000 16.8025400000 3.6095310000 
55 1 30.605544 7.172284 2.226102 1.2839240000 2.7172022000 5.2632676000 
56 1 1.938902 2.981015 2.472507 -2.1979700000 2.3107810000 4.1184540000 
57 1 9.804832 6.174074 2.120976 2.9391730000 -4.4858640700 -2.8293400000 
58 1 11.192413 2.274430 4.644262 0.5481110000 -6.9088940000 -6.2293740000 
59 1 5.501233 3.194062 4.529457 -0.6646330000 1.1407140000 -0.9839130000 
60 1 7.129058 2.318653 2.383561 -0.2024570000 -2.7220410000 5.3949220000 
61 1 11.122058 7.349158 68.555585 1.0505570000 -0.9478760000 2.4927123000 
62 1 3.633906 28.035077 18.854225 -4.9209800000 5.7347300000 -1.6061200000 
63 1 7.188362 6.652000 2.354447 -7.3580291000 4.5012120000 -0.0726100000 
64 1 9.781953 3.378624 2.499745 -2.5408100000 2.8374171000 6.0952000000 
65 1 11.043182 18.205122 26.290402 -6.1385790000 -3.0181667000 7.5794358000 
66 1 3.200799 9.736742 0.393052 4.7441730000 0.6271200000 5.7658900000 
67 1 14.493961 2.542296 15.617396 -2.7924600000 1.2722000000 8.6815100000 
68 1 13.515538 7.512206 39.655519 5.1780200000 5.8723190000 -0.2931100000 
69 1 5.266142 18.038317 13.477925 1.3809400000 3.2981450000 1.3019250000 
70 1 5.310561 13.852704 13.476492 1.1286300000 -6.4572350000 -11.1838900000 
71 1 14.131417 5.866955 23.692491 1.8177900000 -2.9767000000 6.5301800000 
72 1 13.602862 18.840425 47.451446 1.0174960000 1.6001540000 -2.6606020000 
73 1 19.859549 2.520188 37.990640 5.0012210000 -5.7679200000 -4.0290500000 
74 1 11.328290 10.141332 0.191530 -10.4706827000 -3.1426180000 0.9770130000 
75 1 6.040135 10.446974 68.730305 -3.5612059000 2.0330231000 2.7500400000 
76 1 2.109678 2.501960 17.612271 0.3946900000 1.2244200000 1.4706330000 
77 1 10.281843 14.631572 13.321254 3.2278010000 -5.3599239000 -0.1373280000 
78 1 12.823038 13.321929 13.225560 -5.0515760000 5.9303270000 -10.0389700000 
79 1 14.253428 3.796953 18.179556 -2.7911331000 3.6694940000 -9.2149700000 
80 1 11.370506 20.775988 19.352015 -1.1729890000 -3.7955320000 -4.7363800000 
81 1 1.441364 13.550295 11.342663 -10.2118600000 2.4567000000 -3.4866110000 
82 1 2.486634 10.045143 13.323264 -9.7831810000 -8.3335300000 -3.0119240000 
83 1 29.097401 9.695932 13.827339 -4.3313090000 4.5102690000 -3.1676570000 
84 1 30.171947 9.660698 11.300331 -2.6743400000 -6.3719500000 15.6381700000 
85 1 2.855146 14.700340 9.324432 6.1650110000 -8.6130614000 -8.7996900000 
86 1 5.355724 13.406670 9.035009 -2.6556431000 0.6969230000 -1.6982650000 
87 1 30.201666 14.477436 11.250275 6.8240200000 1.4178636000 -8.5988900000 
88 1 1.077391 10.747626 11.007329 16.9393600000 -1.0297990000 1.8602900000 
89 1 9.002760 13.187699 11.324163 -3.0177100000 1.8484900000 -3.5910500000 
90 1 8.733537 5.965370 11.613806 0.3492400000 11.5060900000 8.2627400000 
91 1 4.920832 10.987988 13.380826 12.0713700000 9.3108010000 1.4077140000 
92 1 6.287837 9.698637 11.266308 -6.4308910000 -7.8160200000 0.9510550000 
93 1 10.484757 14.396261 9.302054 5.9453940000 -1.2169280000 -1.8162830000 
94 1 13.233253 13.240406 9.276418 -3.5104600000 7.6333760000 0.8138200000 
95 1 6.597437 14.581321 11.171178 -0.6334800000 -4.7181990000 2.3838700000 
96 1 8.906490 10.365605 11.366250 3.8532580000 6.2999360000 -7.6330000000 
97 1 1.563572 13.606665 6.804158 4.7456436000 -4.9559938000 5.7549100000 
98 1 2.454151 9.611512 8.895639 -3.3158450000 13.7988600000 -2.8379400000 
99 1 28.761397 10.630818 9.416450 -6.7875200000 4.3778580000 -19.1983300000 
100 1 30.023702 9.542765 7.224257 3.9732060000 2.2424390000 0.3204410000 
101 1 2.869281 14.407487 4.554475 -0.0281270000 -2.1250800000 -3.6291900000 
102 1 5.542236 13.469563 4.382453 -0.6556980000 3.7611040000 -3.0275200000 
103 1 30.501245 14.534150 7.068179 -5.5064100000 0.9038500000 0.6892840000 
104 1 1.118897 10.707310 6.694748 4.8292400000 1.3781710000 -0.4809700000 
105 1 9.427780 13.707724 6.769961 -1.5083630000 -4.0180500000 3.2504500000 
106 1 10.374133 9.511231 9.062626 -0.4506177000 5.5482910000 2.1075820000 
107 1 5.078342 10.499141 8.920280 4.4707990000 3.6450310000 -3.8256250000 
108 1 6.983092 9.951954 6.822683 -1.2809970000 4.9228900000 2.5875080000 
109 1 10.514741 14.678980 4.476630 11.1420500000 5.1187520000 12.7360660000 
110 1 13.080953 13.399026 4.525513 3.9482290000 0.9445430000 3.3027100000 
111 1 6.757295 14.410419 6.743082 -0.4591670000 -3.2586240000 1.2219010000 
112 1 9.657300 10.759675 6.673859 -4.0627500000 7.7194570000 9.1161400000 
113 1 1.515023 13.396152 2.331463 5.4554600000 -0.1769900000 -0.9410800000 
114 1 3.135937 9.631687 4.505494 1.6640910000 1.5692540000 5.9824750000 
115 1 29.188985 11.010487 4.940795 -5.7515200000 -14.8910280000 5.4915500000 
116 1 30.552882 9.871039 2.927467 -3.7028900000 -6.9711800000 -8.8662458000 
117 1 16.432959 2.566376 22.763201 1.0286520000 -4.2772630000 8.3541600000 
118 1 2.151160 1.061972 48.883072 -6.2376790000 4.5580210000 -6.5508860000 
119 1 30.530130 14.497461 2.498395 -3.3018400000 -4.5802050000 -6.3434070000 
120 1 1.634090 10.634407 2.526155 4.5574100000 7.2744920000 -5.3552200000 
121 1 9.503233 13.575291 2.356740 -9.1843900000 -9.6813900000 -4.2492400000 
122 1 11.050791 9.682571 4.682085 -4.1429620000 -1.5836300000 -12.7566884000 
123 1 5.807656 10.742038 4.450147 -3.6606492000 -3.1470100000 1.4371000000 
124 1 7.160117 9.551545 2.379330 -0.2147310000 -0.3242010000 -3.7299450000 
125 1 10.987980 14.676613 0.506722 2.9518660000 -0.6857850000 -4.0914450000 
126 1 18.014215 14.362927 19.427979 -2.2406170000 7.4147200000 -0.2895550000 
127 1 6.981684 14.679515 2.200243 -1.5525860000 1.9352170000 -1.9432640000 
128 1 9.669719 10.732259 2.400877 3.8845800000 -0.5633829000 0.5503300000 
129 1 25.088839 25.710471 15.744799 1.4987420000 -0.2654400000 3.1236660000 
130 1 2.991091 17.084959 68.673398 6.1237610000 -3.9964000000 0.4302570000 
131 1 29.285888 18.188582 0.056984 4.7273363000 1.6736330000 2.2059430000 
132 1 18.586672 24.451562 32.633369 1.9901800000 0.6430400000 -6.5487311000 
133 1 29.263766 19.920417 18.065104 -5.4529440000 -7.7960600000 5.9205830000 
134 1 5.253640 20.878482 13.370895 6.2880900000 1.9496100000 3.3068100000 
135 1 22.511678 20.530887 17.143289 4.1763080000 -0.2887200000 -0.4025200000 
136 1 17.492327 9.936617 47.810187 -1.5201800000 -0.0520410000 -3.2746570000 
137 1 26.230616 29.261753 13.455076 -2.1041700000 -3.1013600000 -5.1704700000 
138 1 11.294511 17.355673 0.464800 -5.1047720000 -1.6074800000 2.2167900000 
139 1 5.245693 0.472243 19.515854 -0.5784200000 -3.7301430000 1.7356000000 
140 1 12.014668 3.784533 20.826683 -12.7010760000 4.3303100000 2.5824560000 
141 1 10.622145 21.668680 13.066505 1.5856470000 1.4254310000 3.3979930000 
142 1 10.163532 28.584474 30.720305 -9.1415550000 8.0175010000 11.6545300000 
143 1 14.825973 24.040496 19.833761 -14.1996600000 16.9935100000 5.6270400000 
144 1 10.153156 18.245661 18.462783 15.2907100000 9.1756100000 2.0553900000 
145 1 1.597036 21.071937 11.004401 0.1958000000 -1.2155400000 -11.7566060000 
146 1 10.086407 13.548735 15.806926 4.1660800000 -0.6186262000 0.5150000000 
147 1 0.716519 25.605827 15.977626 7.8128430000 5.5605230000 -2.9062960000 
148 1 30.441057 17.367096 11.079394 -5.8548000000 -3.1871000000 0.0523220000 
149 1 2.965116 21.424455 8.553552 -7.2125161000 16.0515550000 4.2720100000 
150 1 5.595202 21.185898 8.706018 3.1452060000 -8.1838190000 15.8038540000 
151 1 30.504001 21.997334 11.142600 -6.9669350000 7.0925940000 -4.0238340000 
152 1 1.564784 18.403946 11.231483 0.7722600000 -8.0682700000 -4.1139580000 
153 1 9.037169 20.796789 11.017686 -1.9917140000 13.4598890000 -2.4196510000 
154 1 10.423252 17.393606 13.585279 -2.2559510000 2.9765300000 1.3173200000 
155 1 23.146341 15.115316 25.905795 1.2770381000 -6.0783715000 -10.9081880000 
156 1 6.612865 17.310736 11.266259 -7.4285810000 -2.9840400000 -6.1832740000 
157 1 10.533045 21.979486 8.898384 8.0243220000 -1.9530850000 7.5687140000 
158 1 13.380548 21.150778 8.867114 -6.3528770000 -6.0431410000 6.0723450000 
159 1 6.587388 22.307790 11.198756 -1.6669100000 -4.0998540000 -2.7236300000 
160 1 9.101697 18.173277 11.188390 5.3953400000 -1.2880300000 7.7277940000 
161 1 1.570421 20.816785 6.304591 0.9521230000 0.8404600000 -4.1022200000 
162 1 2.712419 17.349140 8.776591 2.7562710000 6.1601700000 7.9521690000 
163 1 28.776759 18.319485 8.962833 -3.4257700000 5.0493300000 1.7758060000 
164 1 30.084502 17.281486 6.800515 5.6714540000 0.3142100000 -1.3414800000 
165 1 3.116528 22.075351 4.252845 -9.3624200000 -2.5878652000 8.3129680000 
166 1 5.489346 20.901135 4.397552 -0.2367380000 -8.1203190000 7.7936910000 
167 1 30.578866 21.939921 6.800050 -6.6724000000 -3.3563310000 -0.2553800000 
168 1 1.374702 18.126367 6.575184 -5.2701600000 -1.5732710000 0.8968600000 
169 1 9.398688 20.998050 6.732089 8.6675380000 0.5330100000 -7.4881325000 
170 1 10.625367 17.277350 9.212686 5.4700891000 -5.2641087700 -6.1865741600 
171 1 5.423508 18.434704 8.948743 -2.1890710000 -2.0655150000 0.5256496000 
172 1 6.868096 17.140117 6.836502 -0.1584100000 3.1235100000 1.6279600000 
173 1 11.005101 21.983145 4.567439 -0.1137000000 -6.2704670000 7.6268640000 
174 1 13.657743 21.004484 4.750005 -5.3669550000 1.8011300000 4.1654610000 
175 1 6.890263 21.909913 6.576857 -2.1628440000 8.2104120000 -9.2439110000 
176 1 9.474417 18.288115 6.899698 -6.9813400000 1.1696830000 5.7343300000 
177 1 1.852638 20.944867 2.178191 -3.9920750000 0.5061406000 -5.0742840000 
178 1 2.703640 17.199176 4.409261 3.6240400000 -2.9030920000 -3.1860400000 
179 1 29.168699 18.390469 4.346682 -4.2595330000 -2.5055943250 0.0254400000 
180 1 30.575571 17.152804 2.257749 -1.6061300000 10.0695300000 5.9185040000 
181 1 3.157440 21.902672 0.006664 1.7927100000 -1.7233850000 1.6312450000 
182 1 5.781512 20.969296 0.260183 -5.1061076000 -2.5863889000 0.8993000000 
183 1 30.697737 21.928750 2.201270 5.7637500000 6.2432380000 1.6643960000 
184 1 1.581113 18.212749 1.932535 3.8145510000 -0.0466240000 10.0739780000 
185 1 9.651268 21.362858 2.367339 -4.1802384000 1.6060000000 -9.6698080000 
186 1 10.684758 17.468500 4.701130 1.9138700000 -1.1664070000 -9.2191700000 
187 1 5.341183 18.087954 4.673159 1.2738800000 0.1403300000 -4.4489400000 
188 1 6.874964 17.543752 2.220367 1.0158500000 -2.9655200000 8.4376900000 
189 1 11.120331 22.462295 0.147191 -15.1503700000 5.5182800000 2.5922900000 
190 1 13.270081 21.048749 0.288640 15.5230300000 -13.5566700000 -3.7608080000 
191 1 6.795213 22.078116 2.486610 12.5932500000 -0.5225640000 -5.1347300000 
192 1 9.513041 18.536792 2.137538 -2.6816500000 1.5945780000 4.5474600000 
193 1 0.415005 4.913412 40.240508 -2.0692100000 2.7018790000 5.6560680000 
194 1 3.099595 24.643745 0.178779 1.5086950000 -0.7452200000 -6.3850232000 
195 1 29.217634 25.908944 68.587352 3.2018100000 -5.0059480000 -0.2606100000 
196 1 10.824754 15.188502 34.054629 -8.2580110000 -4.6400000000 -3.0826200000 
197 1 2.670547 29.701254 13.357120 4.1477100000 0.5911400000 -5.2296910000 
198 1 5.013597 28.407476 13.519370 6.1983650000 8.4413610000 1.9996300000 
199 1 25.308014 17.314224 30.597726 0.9933600000 7.3296200000 -4.3442500000 
200 1 28.837873 6.654590 22.353268 3.8921100000 2.7874810000 2.4160320000 
201 1 30.890879 8.600347 21.556307 -8.5045533000 -3.3222300000 0.4952000000 
202 1 11.117393 25.188098 0.194777 -7.8462290000 0.9170530000 -0.8439330000 
203 1 5.701104 25.437868 68.677986 6.0511040000 3.8659560000 6.3314800000 
204 1 11.682721 6.740377 48.565846 -1.7570100000 -0.9949380000 -0.1778600000 
205 1 19.547178 23.299322 24.488837 -6.6318940000 0.4447282000 -4.7828900000 
206 1 30.441938 14.484818 21.375651 1.6345700000 7.4051260000 0.9558610000 
207 1 27.836310 18.149700 25.508449 4.4431500000 -1.8855530000 0.8833160000 
208 1 0.628728 22.760292 30.788769 -8.7861860000 2.0202810000 -0.6413200000 
209 1 1.661855 28.038815 11.497467 0.9994400000 -1.5119200000 -5.1068600000 
210 1 2.798913 22.020732 13.152456 -4.8611270000 2.6072700000 8.5353500000 
211 1 29.004051 21.884720 16.301559 4.7579965000 -0.5525800000 -11.5816450000 
212 1 30.078324 25.107482 11.042262 -3.9662560000 -5.7698030000 5.5855400000 
213 1 2.783753 29.179301 9.170898 -0.4942380000 -6.1633200000 -1.7589200000 
214 1 5.498319 28.280053 8.776142 1.0057860000 3.7188100000 3.1119140000 
215 1 30.696236 29.195975 11.300153 -10.0114500000 -0.4161862000 -5.8176300000 
216 1 1.315957 25.318187 11.088688 5.4951360000 0.4068500000 -5.6698420000 
217 1 9.030565 28.665129 11.305783 10.2440174000 -1.0597910000 -3.2314270000 
218 1 13.829174 9.204894 25.855994 -2.1269860000 -4.0130050000 2.2327200000 
219 1 6.699224 17.230472 15.657844 -7.5728340000 3.7620200000 5.5218660000 
220 1 6.416367 25.161907 11.254535 2.1468000000 -7.6211500000 1.6353900000 
221 1 10.688539 29.289733 9.107748 -2.3584430000 1.6708690000 4.8631930000 
222 1 13.284543 28.441284 9.239011 2.3283750000 2.1645260000 -3.9104310000 
223 1 6.448681 29.195246 11.287109 -7.2828400000 2.5028400000 -2.7215922000 
224 1 9.207031 25.925799 11.313537 -1.4253560000 -2.6229650000 -1.9857800000 
225 1 1.591335 28.160154 6.835377 -2.5706820000 -0.8205800000 4.4452450000 
226 1 2.795752 24.307371 8.719431 -1.1877700000 -3.9530700000 6.9133500000 
227 1 28.744873 25.643662 8.691228 2.7971350000 9.4621626000 5.0982800000 
228 1 29.986681 24.595949 6.602990 9.3821300000 -1.8812430000 -2.5999500000 
229 1 2.851231 29.163835 4.658810 1.6080868000 -0.3827280000 -4.4860300000 
230 1 5.420574 28.345523 4.740538 -2.3969900000 3.2797390000 0.8580380000 
231 1 30.555564 29.366379 6.488403 6.1331440000 2.0885470000 -4.8329180000 
232 1 1.306710 25.330792 6.721369 -3.2522080000 7.0965810000 -3.9831950000 
233 1 9.520553 28.480797 6.824654 3.2783900000 -2.7801950000 -4.7795130000 
234 1 10.651052 24.690473 9.107976 -8.9938550000 2.2047460000 -2.3981830000 
235 1 5.258899 25.532224 8.822776 0.5626600000 2.5649100000 -2.2767800000 
236 1 7.070991 24.742892 6.898509 0.9881730000 -7.2604900000 0.3331520000 
237 1 10.884944 29.085666 4.507297 -1.9632700000 10.8059380000 1.0151800000 
238 1 13.611133 28.485085 4.663436 -6.4474430000 -8.2217200000 -8.0106300000 
239 1 7.016067 29.476147 6.759884 -6.2616100000 7.9065660000 1.2383780000 
240 1 9.666661 25.778642 6.701292 -10.9179100000 -4.2917680000 15.5249700000 
241 1 2.005588 28.513904 2.050063 1.3889400000 1.3788700000 -1.0570290000 
242 1 2.968070 24.743517 4.663712 1.7826100000 3.7180990000 -5.1064770000 
243 1 29.095746 25.488072 4.172684 -1.6159840000 -1.3847128000 0.6913800000 
244 1 30.670206 24.733225 2.026131 -14.9056400000 -6.7789110000 -6.1794400000 
245 1 5.228365 4.802348 19.495375 7.3449900000 3.0650500000 -3.1734230000 
246 1 6.004817 28.501613 68.538586 -5.2117570000 -0.9817980000 3.7947650000 
247 1 30.917338 29.476665 2.299508 -3.4660370000 0.8961670000 -5.7596500000 
248 1 1.612342 25.822898 2.077526 8.6420600000 2.8287814000 7.6277880000 
249 1 9.443688 28.361944 2.138957 3.8510050000 -0.1408300000 3.6334800000 
250 1 10.782483 24.644627 4.654315 19.8744030000 -1.3518300000 -1.4523900000 
251 1 5.550190 25.691918 4.858128 -0.6291170000 -3.5452410000 -4.4961350000 
252 1 6.891979 24.769347 2.562320 -2.8877940000 7.3122260000 0.9723570000 
253 1 24.944615 28.170343 26.754577 -4.4545430000 2.7889800000 -3.4436660000 
254 1 13.882538 28.898719 0.106109 10.1202480000 -7.6358030000 1.1140000000 
255 1 6.671611 29.300882 2.547718 8.9885490000 -0.5963540000 -10.4190010000 
256 1 9.547395 25.553106 2.533923 -1.6279400000 6.6846729000 -12.1852900000 
257 1 6.762451 28.896848 26.593433 4.1177900000 -2.8895660000 -2.0948450000 
258 1 19.124691 2.742363 0.012550 -2.9682850000 -2.2257310000 -0.9478500000 
259 1 2.096027 5.728035 44.066402 -5.8382490000 -3.7682660000 -1.0553600000 
260 1 26.126867 12.230561 25.411983 3.1370420000 3.0153740000 -4.2274570000 
261 1 20.488140 5.484006 18.470836 6.5269600000 -2.8734000000 4.8198300000 
262 1 28.991878 19.423444 38.541124 -7.6608720000 5.8783000000 7.6545118000 
263 1 24.761551 15.136344 42.672032 -0.9972300000 0.5788460000 -2.6255100000 
264 1 16.853583 6.208002 24.056451 -1.7583900000 -6.6962300000 4.0843200000 
265 1 29.932510 7.442551 14.983055 -1.0164300000 -3.2328280000 1.5127320000 
266 1 6.043721 18.004438 30.594998 5.6667300000 6.6093400000 -11.2415130000 
267 1 24.661287 11.332454 28.471247 6.0538860000 1.5159210000 -2.2286370000 
268 1 10.485702 25.287464 19.928490 0.6780490000 2.1582080000 -7.7242640000 
269 1 2.560716 17.477548 13.666936 1.7635543000 0.6037950000 -2.6562100000 
270 1 28.556797 5.669552 13.300323 1.4636390000 -0.1008476000 -2.9936700000 
271 1 13.308415 1.828247 25.751554 5.7265200000 8.5173800000 -2.2957100000 
272 1 11.549932 24.399436 50.967060 0.4460480000 -5.7300460000 -6.7500095000 
273 1 17.455448 6.260409 15.487384 11.3784400000 0.2572190000 -5.1921140000 
274 1 12.878902 25.754690 36.711914 -4.1511000000 -4.3567500000 -6.7140300000 
275 1 14.429865 6.938763 11.063020 -0.0045540000 0.8000310000 -0.8323000000 
276 1 14.632463 2.830439 11.340883 -7.7426087000 -1.6653930000 5.4160900000 
277 1 18.584288 6.848518 8.938295 3.4144300000 3.8169630000 2.7472800000 
278 1 21.230461 5.937813 9.052417 -1.5866300000 0.9550530000 0.6417700000 
279 1 14.641671 13.918154 15.055440 0.2574760000 10.2863800000 12.7867400000 
280 1 18.150489 2.177135 13.657416 -1.4800440000 11.6522900000 1.2568320000 
281 1 25.140055 6.107873 11.117197 -7.4519800000 -0.4234000000 5.0419810000 
282 1 24.932158 3.352470 11.172694 -2.0704200000 -6.0300790000 10.2615140000 
283 1 23.025089 22.630185 29.863993 4.0107500000 -1.0578040000 7.9263400000 
284 1 12.754461 28.627824 13.655723 2.4638000000 18.6927700000 -7.4177450000 
285 1 26.573908 6.870662 8.984691 -9.4712800000 -0.8411418000 -4.6198210000 
286 1 28.898700 5.752547 9.210504 7.0525940000 -7.1544700000 -3.6534200000 
287 1 22.480144 7.121560 11.198518 1.8898350000 -10.0403610000 0.9375051000 
288 1 25.994469 2.162213 13.799931 -2.3701080000 0.7673850000 -2.8992800000 
289 1 17.045165 6.252069 6.811987 -1.6439850000 -1.2255490000 -3.4939010000 
290 1 18.845362 2.307287 9.133964 -2.7875500000 1.6778100000 -4.0171700000 
291 1 13.091953 3.165946 9.011034 3.1232200000 7.1542400000 -1.0609710000 
292 1 14.837901 2.233731 6.894844 -1.4656170000 3.2425500000 -0.7331530000 
293 1 18.545115 7.191286 4.717652 6.3105410000 0.9509410000 2.4018806000 
294 1 21.339147 6.220812 4.832982 -4.2503710000 3.7076900000 -7.8244460000 
295 1 14.324142 7.244335 6.923114 4.3412600000 -0.6557920000 2.9780600000 
296 1 17.439401 3.515423 6.979161 -3.2364108000 -1.0621110000 2.9861080000 
297 1 25.335807 6.322813 6.564072 3.6887680000 -1.7241700000 -1.8796410000 
298 1 26.290567 2.253400 9.082194 -2.0961610000 1.8521600000 -2.1430500000 
299 1 21.426923 3.173993 8.995972 1.1194600000 0.6483161500 11.7605400000 
300 1 22.544081 2.253414 6.760778 -3.6056600000 1.2265700000 -5.0047700000 
301 1 26.978564 7.467952 4.352887 2.9397930000 -8.6388820000 7.0949800000 
302 1 29.596054 6.207012 4.556080 -5.7083380000 10.3246870000 3.1895550000 
303 1 22.713774 6.935483 7.030432 0.9292100000 6.6141450000 -0.7020600000 
304 1 25.042941 3.335856 6.836356 9.4068960000 2.3855880000 -4.2609050000 
305 1 17.752726 6.250499 2.317635 -7.9757540000 2.8531550000 1.9944500000 
306 1 18.595605 2.626767 4.637829 3.8789780000 -4.8149000000 -0.1551440000 
307 1 13.603839 3.518491 4.707740 6.6723200000 -4.2258250000 1.7333400000 
308 1 15.170662 2.509803 2.634050 -7.9519310000 -0.0603200000 -2.3860100000 
309 1 19.222439 7.068478 0.202191 -0.1153600000 -1.1200250000 -7.8146280000 
310 1 23.456186 20.894549 32.049580 4.4423500000 1.1718250000 6.4751020000 
311 1 15.019294 6.937978 2.413095 5.3724060000 4.1312700000 -8.0760400000 
312 1 17.601862 3.578967 2.265331 6.8180900000 -2.2181200000 0.4538300000 
313 1 25.543783 6.107298 2.563138 -2.7508500000 -3.9313400000 -1.9750860000 
314 1 26.699558 2.449107 4.737123 1.2722840000 -4.0892200000 9.0476400000 
315 1 21.282082 3.518769 4.616710 -1.8348300000 -6.0668450000 0.3451400000 
316 1 22.828251 2.616048 2.480113 5.5573910000 -3.5028120000 15.0245000000 
317 1 3.160031 1.093154 28.614282 -5.1488600000 -0.3935800000 -5.4438100000 
318 1 4.258895 11.575414 27.394008 0.7509000000 1.7301400000 1.6044760000 
319 1 22.984169 7.146623 2.546328 -5.1977000000 1.2738755000 2.2801400000 
320 1 25.505464 3.297166 2.544928 -3.7086000000 1.9243280000 -6.7138200000 
321 1 2.414458 14.632164 23.268810 1.8749700000 -5.8057200000 -2.6092000000 
322 1 19.415978 9.804915 0.142860 -1.9035840000 0.0302700000 3.0720430000 
323 1 13.775524 11.187998 0.262864 4.9814330000 -3.8187700000 -0.5968700000 
324 1 17.015413 0.367088 34.675268 2.3147200000 -6.7450810000 3.1982976000 
325 1 19.707763 9.371703 23.482449 4.1798290000 -1.6216510000 -6.9887900000 
326 1 17.993319 28.274671 16.159225 3.7131100000 12.2142900000 2.2208284000 
327 1 14.300992 9.703641 11.297966 4.7638300000 -0.0836700000 1.8662270000 
328 1 5.607754 20.581292 41.294494 0.0199700000 0.9078440000 3.0792200000 
329 1 17.943983 6.545091 35.812208 -7.0538500000 -4.1304100000 -9.9314000000 
330 1 13.598147 1.503534 43.320331 -0.5141740000 -5.5503100000 -0.4402810000 
331 1 21.874680 16.018479 28.021719 0.6615380000 7.0732500000 12.1218700000 
332 1 8.112753 11.076615 31.207524 17.4972080000 -3.8428063000 -1.1777630000 
333 1 25.884003 16.502402 13.258469 -3.3662990000 6.1944540000 1.0640300000 
334 1 0.852677 13.631628 28.427574 2.3558300000 -1.4673720000 -0.7113570000 
335 1 14.816680 12.549814 51.751795 -2.3525280000 -6.8004740000 -5.0869400000 
336 1 30.212746 2.370464 15.618306 4.1639000000 -4.0362800000 12.9904370000 
337 1 17.157159 13.550268 10.529496 -11.8039320000 -4.7498060000 18.0986600000 
338 1 15.046616 10.286046 15.523128 4.2347100000 -8.6319948000 10.4121000000 
339 1 1.121867 13.810960 15.418430 1.3599150000 2.8789430000 -4.0493542000 
340 1 15.745644 15.777914 20.718228 10.9725800000 0.8222100000 4.8142550000 
341 1 18.428679 14.685671 8.654323 13.0599000000 9.8006630000 -13.3713000000 
342 1 21.008408 13.530603 8.701460 -1.2463000000 -3.0085600000 5.5097322000 
343 1 14.531615 14.612312 11.429055 1.2060050000 -2.2771910000 -6.2215100000 
344 1 16.818722 10.928797 11.184488 0.2098100000 -4.6092480000 -4.7111300000 
345 1 25.134082 13.396388 10.872599 8.7165600000 -9.1766300000 -1.7296260000 
346 1 23.513003 18.058637 17.581987 2.1202310000 0.2512970000 -12.5659130000 
347 1 20.786540 10.427022 13.345583 5.5536990000 2.4210806000 -2.9084780000 
348 1 22.411158 9.753116 11.103345 -3.1152600000 7.6075100000 8.9707300000 
349 1 26.309946 14.516006 8.687536 8.1255400000 -8.2329670000 7.1357300000 
350 1 28.933001 13.266777 8.973390 -0.6952780000 10.2608400000 -1.2330950000 
351 1 22.539685 13.936093 11.069367 -3.5054700000 9.5168600000 -14.8309700000 
352 1 25.057173 10.537208 11.380813 5.7692100000 1.0483770000 -7.0164160000 
353 1 16.995342 13.465869 6.521345 2.6374360000 6.1161640000 1.8417900000 
354 1 18.572305 9.752608 9.069424 -7.2410370000 -3.3191283000 -4.2294900000 
355 1 12.994637 10.475303 9.139505 2.5510050000 -1.1421100000 -7.8463200000 
356 1 14.613700 9.929872 6.899944 -2.0229300000 3.0569480000 5.6267200000 
357 1 18.675444 14.347698 4.409539 -3.5717850000 0.8701690000 6.3854660000 
358 1 21.205883 13.210437 4.609181 1.5288870000 13.0204190000 -3.2232000000 
359 1 14.344126 14.537101 7.003738 1.8879110000 -8.0029000000 -6.8980220000 
360 1 17.239209 10.741666 6.796920 -2.9271820000 -0.5155100000 5.6483110000 
361 1 25.060611 13.660692 6.523447 -1.4772670000 -8.0991400000 -5.0720200000 
362 1 26.332008 9.466695 8.978941 -2.5115700000 14.6297700000 7.2994470000 
363 1 21.131411 10.731367 8.938751 -2.3544130000 6.6064770000 0.6692270000 
364 1 22.835373 9.825951 7.049202 -0.9316860000 -2.8848630000 -6.6868670000 
365 1 26.897998 14.460151 4.674870 -11.0425300000 5.0034910000 0.6091800000 
366 1 29.400796 13.569699 4.704186 6.2713900000 9.5566190000 4.1745999000 
367 1 22.485948 14.517831 6.661066 -0.0802350000 3.2087760000 -5.2041870000 
368 1 25.396939 10.920385 6.797572 -5.3357500000 0.6088670000 7.2052440000 
369 1 17.369013 13.611467 2.154971 2.3487020000 6.6065800000 -3.7314300000 
370 1 18.467000 9.988835 4.498279 -1.5208990000 -3.1068420000 -1.3615610000 
371 1 13.604610 10.545435 4.471957 1.9699400000 4.7584700000 -5.3571600000 
372 1 15.244694 9.830551 2.216549 -10.3979850000 -6.6210300000 0.2805200000 
373 1 18.823322 14.812477 0.108791 3.1472600000 -4.9555450000 2.3622630000 
374 1 21.655787 10.753184 56.004879 13.5525700000 -1.8317710000 -2.2070080000 
375 1 14.710062 14.391925 2.422317 5.4779600000 2.4955744000 17.0810360000 
376 1 17.671490 10.934018 1.960751 3.5396200000 -2.1598730000 3.7425440000 
377 1 25.552795 13.765647 2.380768 -4.1267640000 0.5151520000 -0.9235384000 
378 1 26.549448 10.095135 4.571018 3.9895590000 1.4584600000 -6.8377600000 
379 1 21.112534 10.594652 4.832939 8.0094700000 -8.2889830000 -3.4434200000 
380 1 22.875596 10.050518 2.522990 1.3970114000 -5.6225500000 4.0648110000 
381 1 26.871965 14.522483 0.041988 -2.4355900000 -15.6426610000 1.5379560000 
382 1 29.458687 13.577185 0.158046 0.7016400000 -3.0909470000 -3.7017040000 
383 1 22.661878 14.130079 2.227730 1.1089830000 -3.5208800000 6.3161100000 
384 1 25.493686 11.051431 2.261023 -1.2591100000 -1.1887290000 0.6632764000 
385 1 2.970035 6.508560 21.923163 1.9275100000 0.6034757000 -6.0864880000 
386 1 28.650712 2.793838 13.567667 -4.0188100000 6.0327400000 -12.6467100000 
387 1 13.777668 18.213646 0.472383 5.9751020000 4.5562600000 2.0558100000 
388 1 22.150526 10.634876 33.246258 -6.5087110000 5.5170600000 2.3732010000 
389 1 18.670882 21.771984 13.564317 4.2023510000 1.0880370000 -7.3277710000 
390 1 19.292413 17.188379 15.937379 -5.6260200000 0.5907500000 1.5418472000 
391 1 22.116569 9.785987 19.528922 0.6021600000 0.0456070000 7.4052900000 
392 1 1.778107 3.991718 49.359534 1.2384090000 -1.8709360000 -5.8133900000 